# vtk DataFile Version 2.0
sampleSurface
ASCII
DATASET POLYDATA
POINTS 7981 float
-594.999 0 -300 -700 0 -300 -700 0 -225 -594.998 0
-225 -489.997 -6.77626e-21 -300 -489.997 0 -224.999 -384.996 1.35525e-20 -300
-384.995 0 -224.999 -279.995 0 -300 -279.993 0 -224.998 -174.995
-2.71051e-20 -300 -174.993 0 -224.997 -69.9955 5.42101e-20 -300 -122.493 2.67332e-15
-224.996 -69.9938 0 -224.998 35.0032 0 -300 -17.494 8.04478e-17 -224.999
35.005 1.0842e-19 -225 35.0036 0 -262.5 87.5027 1.73798e-15 -300 87.5032
0 -262.5 140.003 1.16508e-15 -262.5 192.502 0 -262.499 192.502 4.39069e-15
-300 140.002 0 -300 245.001 -1.02663e-15 -262.499 297.501 0 -262.498
297.501 -9.74372e-16 -300 245.001 1.0842e-19 -300 350 -1.52374e-15 -262.498 402.5
1.0842e-19 -262.498 402.5 -1.22255e-15 -300 350 -1.0842e-19 -300 454.999 -4.20128e-16
-262.498 507.499 1.0842e-19 -262.498 507.498 -2.10064e-15 -300 454.999 0 -300
559.997 -2.85828e-15 -262.498 612.496 -1.0842e-19 -262.499 612.495 1.76096e-15 -300 559.997
-1.0842e-19 -300 664.993 -1.25529e-15 -262.499 717.49 0 -262.5 717.49 -3.43822e-15
-300 664.993 1.0842e-19 -300 874.978 0 -300 769.986 0 -300
769.986 -2.33331e-15 -262.5 769.981 0 -225 822.471 -1.86342e-15 -225.001 874.968
5.42101e-20 -225 979.975 0 -300 979.967 0 -225 1084.98 -2.71051e-20
-300 1084.97 2.71051e-20 -225 1189.98 0 -300 1189.98 0 -225
1294.99 -1.35525e-20 -300 1294.99 0 -225 1400 -2.34379e-15 -225 1400
1.35525e-20 -300 -700 0 -150 -594.998 -6.77626e-21 -150 -489.995 -6.77626e-21
-149.999 -384.992 -1.35525e-20 -149.998 -279.989 0 -149.996 -174.987 -5.47847e-16 -149.992
-174.991 -2.71051e-20 -187.495 -122.491 0 -187.495 -69.9921 -2.36329e-15 -187.496 -17.4925
-1.0842e-19 -187.498 87.5043 9.28402e-16 -225.002 35.0068 -1.89584e-15 -187.502 61.2492 1.59681e-15
-187.541 87.5056 0 -187.513 140.005 -2.00317e-15 -187.513 166.254 2.14629e-15 -187.573
192.503 -2.1684e-19 -187.508 192.502 0 -224.999 140.003 0 -225.001 245.001
-1.26223e-15 -187.505 271.251 -4.81169e-16 -187.566 297.501 0 -187.503 297.501 0
-224.996 245.001 0 -224.998 350 1.95915e-15 -187.502 376.25 5.41884e-16 -187.565
402.5 0 -187.502 402.5 0 -224.996 350 0 -224.996 455
4.35416e-16 -187.502 481.25 1.558e-15 -187.565 507.5 0 -187.503 507.499 -2.1684e-19
-224.996 454.999 2.1684e-19 -224.996 560 -1.05883e-15 -187.504 586.25 8.13368e-16 -187.567
612.5 0 -187.506 612.497 0 -224.998 559.998 0 -224.997 665
2.47415e-16 -187.508 691.256 1.87415e-15 -187.51 717.49 0 -187.501 717.489 0
-225 664.994 0 -224.999 769.975 2.13252e-15 -187.501 822.462 0 -187.501
874.957 -3.33067e-15 -187.501 874.936 0 -150.001 979.946 0 -150.001 1084.96
0 -150.001 1189.97 0 -150 1294.99 -1.35525e-20 -150 1400 2.44353e-15
-150 -700 0 -74.9999 -594.997 0 -74.9997 -489.994 0 -74.9993
-384.989 0 -74.998 -279.98 -2.71051e-20 -74.994 -174.966 -3.5831e-15 -74.9817 -175.042
0 -112.513 -122.487 2.71051e-20 -149.991 -122.538 0 -112.545 -70.0149 1.16226e-15
-131.274 -43.7389 0 -131.241 -43.7648 8.67362e-19 -150.038 -69.9896 -5.42101e-20 -149.992
41.1247 -2.1684e-19 -131.373 35.0001 -1.0842e-19 -145.091 34.9986 0 -131.322 140.008
-2.51535e-16 -131.469 153.13 -5.85469e-16 -131.461 166.257 4.33681e-19 -131.458 166.256 0
-150.154 140.007 0 -150.144 245.001 9.68409e-16 -131.437 258.126 4.30211e-16 -131.439
271.25 4.33681e-19 -131.445 271.251 -4.33681e-19 -150.14 245.001 0 -150.126 350
9.19837e-16 -131.436 363.125 3.62557e-16 -131.438 376.25 4.33681e-19 -131.444 376.25 0
-150.139 350 0 -150.124 455 6.72639e-16 -131.436 468.125 9.52797e-16 -131.438
481.25 0 -131.444 481.25 4.33681e-19 -150.139 455 0 -150.124 560
-1.56125e-16 -131.437 573.126 -3.95517e-16 -131.439 586.252 0 -131.446 586.251 0
-150.141 560 -4.33681e-19 -150.125 665.036 -2.27682e-16 -131.448 678.223 1.52222e-16 -131.436
691.391 2.1684e-19 -131.398 691.335 2.1684e-19 -150.098 665.025 0 -150.131 769.996
6.88035e-16 -131.291 770.003 1.66165e-15 -112.564 822.468 0 -112.496 822.443 -2.64719e-15
-150.002 769.976 0 -150.01 874.898 -2.05944e-15 -112.501 874.845 1.0842e-19 -75.0013
979.908 0 -75.0013 1084.95 0 -75.001 1189.97 0 -75.0007 1294.98
0 -75.0005 1400 9.93582e-15 -75.0004 -700 3.38813e-21 -5.72304e-05 -594.997 0
-7.6816e-05 -489.993 6.77626e-21 -0.000116721 -384.986 1.35525e-20 -0.000163077 -280.089 -8.67362e-19 0.0558625
-175.074 -5.25404e-16 0.00335334 -175.025 0 -37.5011 -122.562 -2.71051e-20 -72.9365 -122.561
0 -75.0498 -155.702 0 -37.5077 -63.3483 1.35525e-20 -75.0926 -70.0553 0
-75.0911 -70.0605 6.79409e-16 -65.7232 -68.6047 1.69407e-21 -65.7244 34.986 0 -75.0512
34.9795 -3.98986e-17 -73.8989 36.9971 -4.33681e-19 -73.5755 36.642 -8.67362e-19 -75.0089 769.928
-1.9095e-15 -56.2604 769.811 -5.16297e-16 -37.501 822.384 0 -37.5037 822.398 -2.1684e-19
-75.0054 769.919 2.1684e-19 -75.0268 874.877 1.27849e-15 -37.4969 874.75 0 -0.00319055
979.88 0 -0.00258442 1084.94 0 -0.00172148 1189.96 -2.71051e-20 -0.00107926 1294.98
2.71051e-20 -0.000692181 1400 -1.76817e-15 -0.000518079 -700 0 74.9998 -594.997 0
74.9996 -489.994 0 74.999 -385.121 0 75.0756 -280.13 0 75.0339
-175.132 6.25163e-16 75.065 -175.108 -1.35525e-20 37.5271 -137.624 0 37.543 -122.618
3.38813e-21 31.1048 -122.604 0 18.774 -122.595 -1.0842e-19 0.00160859 -70.0522 0
0.00137791 -70.0712 -1.59215e-16 2.34763 -66.7567 0 2.3453 -66.6893 2.71051e-20 1.16896
-66.6788 0 0.00102337 140.57 0 -0.000701733 140.61 1.59412e-16 4.68711 147.092
0 4.68742 147.089 8.47033e-22 2.3437 147.079 0 -0.000115042 769.672 8.57604e-17
18.7477 769.818 1.56364e-15 37.4984 822.375 0 37.5044 822.289 -1.0842e-19 -0.00139072
769.67 0 -0.00120793 874.872 1.34636e-15 37.4981 874.931 0 75.0096 979.906
-1.0842e-19 74.9957 1084.94 5.42101e-20 74.9976 1189.97 0 74.9987 1294.98 0
74.9992 1400 1.06882e-15 74.9994 -385.123 1.35525e-20 125.208 -467.393 0 150.013
-385.123 1.35525e-20 150.066 -280.139 0 133.803 -280.142 5.42101e-20 150.071 -175.117
0 150.111 -175.127 2.71051e-20 112.607 -175.132 8.47033e-21 76.5976 -700 0
150 -594.998 0 149.999 -489.995 0 149.999 -173 -8.47033e-22 75.0666
-43.8386 5.42101e-20 82.1741 -61.7019 4.33681e-19 93.8719 -43.8344 0 93.8496 -43.8397
0 84.47 34.9672 8.67362e-19 75.1266 34.9631 6.07153e-17 76.3154 36.5996 0
76.3272 36.5972 0 75.1603 769.851 1.94072e-16 93.7353 769.91 4.87891e-17 112.484
822.388 2.1684e-19 112.488 822.424 0 75.0203 769.938 0 75.0374 874.89
-1.51843e-15 112.491 874.931 0 149.992 979.943 -5.42101e-20 149.996 1084.96 0
149.998 1189.97 0 149.999 1294.99 1.35525e-20 149.999 1400 3.13531e-15 150
-490.027 -1.69407e-21 191.871 -550.997 0 225.02 -490.052 0 225.049 -385.109
0 225.056 -280.111 0 225.088 -175.063 0 225.071 -175.095 -1.04734e-15
187.6 -700 1.69407e-21 225 -594.998 0 225 -69.9883 1.35525e-20 149.988
-69.9918 1.15912e-15 187.493 -17.4927 -2.71051e-20 187.494 -17.4935 -2.71051e-20 187.264 -69.8343
0 149.989 34.9964 -8.67362e-19 150.059 34.9742 2.328e-15 168.92 61.2353 4.33681e-19
168.925 61.2356 0 150.177 140.007 -2.1684e-19 150.162 140.005 2.2031e-16 168.912
166.254 0 168.906 166.255 0 150.151 245.001 0 150.163 245.001
-8.48063e-16 168.916 271.251 2.1684e-19 168.914 271.251 0 150.173 350 4.33681e-19
150.176 350 -7.54822e-16 168.91 376.25 0 168.911 376.25 0 150.177
455 -4.33681e-19 150.176 455 1.86136e-15 168.909 481.25 2.1684e-19 168.911 481.25
-4.33681e-19 150.177 560 0 150.178 559.999 1.82363e-16 168.913 586.249 0
168.917 586.25 -2.1684e-19 150.182 665.03 0 150.193 665.023 9.37618e-16 168.922
691.243 2.1684e-19 168.722 691.248 2.1684e-19 149.967 822.435 -1.0842e-19 149.988 769.955
1.63931e-15 149.984 769.97 1.98474e-15 187.486 822.458 0 187.49 874.953 -1.11022e-15
187.492 874.965 0 224.995 979.965 -5.42101e-20 224.997 1084.97 0 224.999
1189.98 0 224.999 1294.99 1.35525e-20 225 1400 5.69857e-15 225 -557.446
-1.69407e-21 300 -490.046 0 300 -385.098 0 300 -280.093 4.33681e-19
300 -175.043 0 300 -76.1356 -9.48677e-20 300 -70.9141 1.35525e-20 224.996
-122.548 1.52656e-15 225.065 -700 7.74253e-15 300 -594.999 -3.38813e-21 300 -69.994
0 224.995 -69.9962 0 300 -69.9956 0 262.498 -66.9054 -1.35525e-20
262.501 -69.5321 1.35525e-20 224.996 34.987 -1.35525e-20 225.11 34.9914 0 245.756
48.6354 6.77626e-21 262.555 87.5011 -2.71051e-20 262.555 87.5003 0 225.111 140.003
0 225.108 140.002 4.23766e-15 262.554 192.502 1.0842e-19 262.552 192.502 -1.0842e-19
225.104 245.001 0 225.099 245.001 4.05719e-15 262.55 297.501 0 262.548
297.501 1.0842e-19 225.096 350 0 225.095 350 4.93019e-15 262.548 402.5
-1.0842e-19 262.547 402.5 0 225.094 454.999 0 225.095 454.999 3.44917e-15
262.547 507.498 -1.0842e-19 262.548 507.499 0 225.095 559.998 0 225.097
559.997 -2.99446e-15 262.549 612.495 -1.0842e-19 262.55 612.497 0 225.1 665.007
0 225.1 664.999 -1.53902e-15 262.55 717.488 0 262.493 717.486 0
224.987 874.976 5.42101e-20 300 822.468 -1.0842e-19 224.992 769.978 1.0842e-19 224.99
769.984 2.22619e-15 262.494 769.984 -5.42101e-20 300 979.974 0 300 1084.98
0 300 1189.98 0 300 1294.99 0 300 1400 0
300 35.0007 1.0842e-19 -150.05 48.1118 -4.33681e-19 -131.431 61.2412 0 -131.442
61.2454 -8.16187e-16 -150.132 113.757 1.61373e-15 -150.161 113.759 0 -131.483 126.884
0 -131.48 36.6261 0 -76.2272 34.9816 0 -76.238 218.752 -3.57353e-16
-150.144 218.752 0 -131.448 231.876 0 -131.44 323.75 1.03563e-15 -150.139
323.75 0 -131.444 336.875 0 -131.438 428.75 -4.93529e-16 -150.139 428.75
0 -131.444 441.875 0 -131.438 533.75 7.76722e-16 -150.139 533.75 -4.33681e-19
-131.444 546.875 0 -131.438 638.758 3.45644e-16 -150.146 638.763 0 -131.452
651.896 0 -131.45 743.79 2.27682e-16 -150.061 743.801 0 -131.328 769.993
1.11586e-15 -93.8109 743.802 -4.33681e-19 -93.8571 743.703 0 -75.0596 -56.9292 0
-75.094 -56.9379 0 -65.7339 33.3342 -4.51028e-17 -75.0811 33.3312 0 -73.9207
-66.6946 -1.14465e-16 -1.1662 -66.7666 0 -2.34209 -70.0751 2.71051e-20 -2.34396 140.61
-6.28085e-16 -4.68798 140.61 0 -9.376 127.471 0 -9.37901 127.406 0
-0.00361664 147.088 5.84165e-17 -2.34381 147.091 1.69407e-21 -4.68759 743.677 -2.1684e-19 -56.2792
769.679 -1.47712e-15 -18.7503 743.335 -1.0842e-19 -18.7499 743.292 0 -0.00040476 -70.0909
[...]
POINT_DATA 7981
FIELD attributes 1
U 3 7981 float
20.0007 -0.000176574 -5.41441e-15 20.0001 -7.00562e-05 2.44226e-15 20 0 0 19.9998 -0.000177714
-0.00210924 20.0028 -0.000245451 -1.3523e-15 19.9995 -0.00024825 -0.00539842 20.0121 -0.000374711 2.70689e-15
19.9992 -0.000382116 -0.0159648 20.0601 -0.000579907 1.38522e-15 20.0012 -0.000599077 -0.0515902 20.1399
-0.000864038 2.72175e-15 19.9312 -0.000918691 -0.119812 20.2488 -0.00117767 -2.72524e-15 19.9708 -0.0011165
-0.175759 20.1761 -0.00128804 -0.198359 20.4233 -0.0015065 0 20.3125 -0.0014652 -0.253815
20.4397 -0.0016185 -0.223235 20.4394 -0.00155794 -0.103992 20.513 -0.00169734 0 20.5126
-0.0017291 -0.108075 20.5958 -0.00198555 -0.107951 20.6808 -0.00241203 -0.0905781 20.6731 -0.00231955
-2.61072e-18 20.5925 -0.00194571 2.7972e-15 20.7474 -0.00315165 -0.0619417 20.7878 -0.00319943 -0.0351138
20.7796 -0.00274965 5.62675e-15 20.738 -0.00281289 -2.79979e-15 20.8073 -0.00205531 -0.0148605 20.813
-0.000588218 0.00108328 20.8071 -0.000521712 -5.63265e-15 20.8008 -0.00180454 2.81058e-15 20.8076 0.00088298
0.0176035 20.7876 0.00232042 0.0402105 20.7778 0.00205738 4.21143e-19 20.8005 0.000803116 -3.67772e-18
20.7432 0.0034111 0.0735415 20.6622 0.00329475 0.115491 20.6498 0.00295082 0 20.7305
0.00295288 -2.81237e-15 20.5471 0.00246855 0.147557 20.4137 0.0019408 0.164897 20.4116 0.0019033
-6.95256e-18 20.5387 0.00237388 -2.76693e-15 20.1632 0.00101974 -6.58007e-21 20.3054 0.00154445 3.68001e-15
20.3174 0.00162133 0.14502 20.2483 0.00165118 0.312893 19.9889 0.00134454 0.212153 19.9358
0.00108586 0.130965 20.0604 0.000677617 1.35391e-15 19.9987 0.000707032 0.0514016 20.0113 0.00043067
4.90885e-20 19.998 0.000446681 0.0156619 20.0024 0.000250791 -1.35396e-15 19.999 0.000258754 0.00510846
20.0007 0.000115502 0 19.9996 0.000118835 0.0015913 19.9997 5.80306e-05 0.000629613 20.0004
5.63897e-05 0.000204937 20 0 0 19.9978 -0.000180613 -0.00301455 19.9929 -0.00025536
-0.00739816 19.9791 -0.000400896 -0.0204405 19.9396 -0.000646308 -0.058285 19.9687 -0.00105828 -0.299071
19.911 -0.00102012 -0.250989 19.9901 -0.00119669 -0.319387 20.1347 -0.00140731 -0.353371 20.2643
-0.00159137 -0.392676 20.5198 -0.00182006 -0.218196 20.2876 -0.00170799 -0.376358 20.3344 -0.00180757
-0.355396 20.4729 -0.00200589 -0.365144 20.6151 -0.00223806 -0.408671 20.7072 -0.00239872 -0.399869
20.7746 -0.00274639 -0.325412 20.706 -0.00261547 -0.193669 20.605 -0.00208099 -0.232926 20.8473
-0.0062708 -0.19129 20.8632 -0.00884623 -0.137578 20.8605 -0.00822657 -0.0955851 20.8132 -0.00474541
-0.0686036 20.7776 -0.00426628 -0.126697 20.8572 -0.00393115 -0.0374318 20.857 -0.00252828 -0.0164277
20.8555 -0.00132366 0.00205916 20.8303 -0.000784981 0.00187163 20.8267 -0.00285103 -0.028221 20.8604
0.00176039 0.043066 20.8675 0.00296304 0.0683876 20.8701 0.00433413 0.104203 20.8177 0.00315602
0.0770776 20.8284 0.00112266 0.0328685 20.8723 0.00855496 0.213927 20.8685 0.0091164 0.298198
20.8177 0.00647415 0.39656 20.7026 0.00442709 0.245107 20.7842 0.00498369 0.147401 20.612
0.00279807 0.593166 20.3472 0.0023494 0.675892 20.2072 0.00213523 0.638843 20.419 0.00202543
0.355818 20.574 0.00267896 0.316875 20.1253 0.00176743 0.512537 19.9692 0.00144176 0.366095
19.8918 0.00120218 0.260543 19.931 0.00124935 0.281335 19.9372 0.000795306 0.0549697 19.9782
0.000493888 0.0194136 19.9924 0.00028202 0.00682421 19.9972 0.000128449 0.00220215 19.9983 6.26513e-05
0.000885433 20 0 0 19.9959 -0.00018395 -0.00233989 19.987 -0.000263523 -0.00543961
19.9628 -0.000422961 -0.0144768 19.8948 -0.000704454 -0.0412809 19.6524 -0.00123649 -0.254804 19.8087
-0.00119789 -0.336169 19.9717 -0.00129317 -0.451106 19.6098 -0.00136936 -0.551849 19.8553 -0.000961734
-0.83472 20.0021 -0.00168588 -0.932526 19.974 -0.00173519 -0.68028 19.8913 -0.00096155 -0.584915
20.5124 -0.0019668 -0.659243 20.5253 -0.00189648 -0.626411 20.5017 -0.00104103 -0.713311 20.5858
-0.00309351 -1.05092 20.7826 -0.00314298 -1.07116 20.9343 -0.00325927 -0.930726 20.7979 -0.00276553
-0.679898 20.616 -0.00261636 -0.737134 21.0415 -0.00931539 -0.245828 21.0198 -0.011883 -0.192332
20.9931 -0.0137439 -0.154862 20.9435 -0.0128395 -0.159239 20.9621 -0.00843234 -0.240539 20.9091
-0.00472054 -0.0354458 20.9025 -0.0034175 -0.0252885 20.8974 -0.003272 -0.0154598 20.8849 -0.003133
-0.017005 20.8927 -0.00448817 -0.0385915 20.9134 0.0031035 0.0389997 20.9226 0.00398496 0.0493381
20.9336 0.00400421 0.0650701 20.9121 0.00374145 0.0712222 20.8968 0.00289464 0.0434154 21.0806
0.0141805 0.243359 21.1244 0.0153813 0.299718 21.161 0.0142659 0.384741 21.0371 0.013259
0.375261 21.0035 0.0132569 0.249725 21.0295 0.0035748 1.50682 20.6885 0.00322559 1.74626
20.4155 0.00290753 1.77797 20.5855 0.00257353 1.28955 20.8167 0.00304865 1.08327 19.6439
0.00205917 1.01157 19.5206 0.00210427 1.12015 19.6545 0.0016855 0.501317 19.8893 0.00156241
0.482582 19.7572 0.00192537 0.758508 19.8048 0.00140013 0.289339 19.6857 0.00147015 0.214779
19.901 0.000936378 0.0365561 19.9636 0.000569089 0.0130935 19.9867 0.000318522 0.00475742 19.9949
0.000143221 0.00157839 19.9969 6.95027e-05 0.000648383 20 0 0 19.9951 -0.000186258
-0.000565366 19.9843 -0.000268845 -0.000834388 19.9535 -0.000437485 -0.00136794 19.8529 -0.00074606 -0.00220188
19.4091 -0.00137406 -0.00136666 19.4403 -0.00137718 -0.179916 19.4131 -0.00153654 -0.72983 19.4525
-0.00152991 -0.726326 19.2194 -0.00145692 -0.320525 19.092 -0.00163047 -1.88312 19.0655 -0.0016111
-1.69033 18.8536 -0.00158537 -2.11939 18.867 -0.00158641 -2.16242 21.7605 0.0269049 -5.48697
21.9225 0.0361746 -6.02577 22.0847 0.0210252 -6.22047 22.0668 0.0208415 -5.64371 18.1188
0.00222653 1.24861 17.7742 0.00218718 0.88618 19.0496 0.0019303 0.28942 19.3712 0.00180698
0.457112 18.7382 0.00221565 1.23401 19.5167 0.00165351 0.145371 19.5196 0.00175536 0.000634126
19.8644 0.00112456 0.000838416 19.9555 0.000666076 0.000507682 19.9842 0.000364324 0.000283668 19.9939
0.000161278 0.000134352 19.9963 7.75502e-05 7.53674e-05 20 0 0 19.9957 -0.000186823
0.0012834 19.9865 -0.00026932 0.00384993 19.9619 -0.000437543 0.0117272 19.894 -0.00075353 0.0362669
19.654 -0.00146294 0.247743 19.4426 -0.00149792 0.176519 19.0178 -0.00170991 0.450722 18.7134
-0.00176969 0.494245 18.4563 -0.00172049 0.367584 18.4567 -0.00165255 0.0014946 10.2029 0.0016217
0.0450137 9.98201 0.00176325 0.821523 7.98112 0.0033409 1.18867 7.54976 0.00362919 0.653878
7.75425 0.00347993 0.0650044 3.34832 -0.00141275 0.0161353 3.10793 -0.00120175 0.586056 1.77602
-0.00129975 0.622719 1.63314 -0.00146551 0.321121 1.76788 -0.00159642 0.0175424 17.2478 0.00215708
-0.537425 17.7795 0.00222663 -0.887415 19.0497 0.00227079 -0.2886 18.9187 0.00207418 0.000337983
17.3368 0.00216256 -0.00136656 19.5161 0.00200428 -0.144093 19.6845 0.00215081 -0.212656 19.9005
0.00134537 -0.0350417 19.9633 0.000773041 -0.012161 19.9865 0.000412924 -0.00423454 19.9947 0.000179992
-0.00133056 19.9967 8.55595e-05 -0.000509115 19.9718 -0.00043242 0.0158251 19.9885 -0.000301966 0.00862057
19.9767 -0.000429878 0.0178571 19.9266 -0.00073994 0.0486875 19.9356 -0.000736152 0.0521255 19.9674
-0.00165445 0.28047 19.8104 -0.0016385 0.324031 19.6604 -0.00147011 0.250858 20 0
0 19.9973 -0.000186163 0.00218263 19.9917 -0.000266827 0.00608298 19.646 -0.00148768 0.266872
19.568 -0.00246939 2.1274 19.6357 -0.00332625 1.38585 19.6491 -0.00251793 1.63376 19.5815
-0.00237955 2.0336 21.7695 -0.0389751 5.36157 21.6108 -0.0200575 4.89456 21.8687 -0.0348191
4.96815 22.0712 -0.0243397 5.53723 19.1622 0.00255232 -1.29854 19.5225 0.00277071 -1.11623
19.6546 0.00281422 -0.498764 19.3709 0.00252399 -0.455324 18.7386 0.00243814 -1.2336 19.804
0.00246032 -0.286684 19.9305 0.00258516 -0.278983 19.9363 0.00155251 -0.0538171 19.9775 0.000869415
-0.0187034 19.9919 0.000455833 -0.00642586 19.9968 0.000196244 -0.0020131 19.998 9.22782e-05 -0.000778808
19.995 -0.000265472 0.00526882 19.9985 -0.000218471 0.00289415 19.9977 -0.000264398 0.0046237 19.9948
-0.000423554 0.0142474 19.9892 -0.000719762 0.0464713 19.8982 -0.0014293 0.0869796 19.9097 -0.00174119
0.214969 20 0 0 19.9991 -0.000185312 0.00164545 19.8766 -0.0177398 0.563774
20.1263 -0.0111439 0.361396 20.0361 -0.0420374 0.522817 20.034 -0.0414837 0.525862 19.8772
-0.0177486 0.564348 20.4956 -0.0130961 0.541227 20.3613 0.0160313 0.346318 20.462 -0.0545877
0.438394 20.5032 -0.0215606 0.486114 20.6163 -0.00206452 0.730719 20.618 -0.00263892 0.536718
20.7386 -0.000418297 0.502313 20.7952 0.000287429 0.673283 20.9608 0.00620453 0.239503 20.8978
0.00391657 0.217788 20.8981 0.00234485 0.149302 20.9438 0.00416829 0.157714 20.8949 0.00320294
0.0373602 20.8774 0.00164399 0.038005 20.8736 0.00133004 0.0160685 20.8884 0.0020858 0.0159381
20.8982 0.000703528 -0.0429177 20.8803 0.000382788 -0.0440872 20.8907 -0.00129387 -0.0714122 20.9147
-0.00158213 -0.0706486 21.0039 -0.00276701 -0.247351 20.935 -0.00167102 -0.234691 20.9392 -0.00229337
-0.336012 21.0372 -0.00411712 -0.37221 20.8159 -0.00217961 -1.07218 20.6809 -0.000747396 -0.798839
20.425 0.0012134 -0.929018 20.5866 0.000309301 -1.28005 19.8897 0.00311433 -0.479477 19.7606
0.00324101 -0.755007 20.1253 0.00379573 -0.50916 19.9684 0.00339884 -0.363401 19.8908 0.00288791
-0.258504 19.9344 0.0029293 -0.129684 19.9974 0.00169478 -0.0507482 19.9971 0.00093465 -0.0152754
19.9983 0.000485254 -0.00489351 19.9991 0.000207191 -0.00148926 19.9993 9.66765e-05 -0.000571876 20.0002
-0.000213059 4.85953e-16 20.0007 -0.000263496 1.35375e-15 20.0066 -0.000421319 -1.70503e-18 20.0424 -0.000713998
1.35354e-15 20.0586 -0.0012564 0 20.2128 -0.00201391 0 20.1971 -0.00406251 0.216812
19.9526 -0.00243477 0.12954 20 -7.2712e-05 -2.44221e-15 19.9999 -0.000184958 2.45967e-18 20.2014
-0.00409155 0.218367 20.2223 -0.00206087 0 20.2487 -0.00248745 0.103797 20.2538 -0.00244233
0.105154 20.2026 -0.00404959 0.218712 20.4226 -8.61079e-05 0.226371 20.4178 -0.00136946 0.164612
20.4373 -0.00287453 0.113343 20.504 -0.0041874 0.110455 20.5067 -0.00543511 0.228569 20.601
-0.00369178 0.232466 20.5903 -0.00408767 0.108012 20.6772 -0.00388596 0.0898261 20.7028 -0.00246064
0.1919 20.7761 -0.00244605 0.124714 20.7458 -0.004227 0.0609614 20.7888 -0.00440357 0.0342193
20.814 -0.00315735 0.0667628 20.8295 -0.00200207 0.0269447 20.8105 -0.00281617 0.0142293 20.8168
-0.000569346 -0.00143901 20.8336 3.5845e-05 -0.00249014 20.8314 7.3809e-05 -0.0326134 20.8112 0.000182636
-0.01745 20.7915 0.000928903 -0.0394633 20.8209 4.97615e-05 -0.0757923 20.7872 0.00199274 -0.144839
20.7468 0.00321988 -0.0722461 20.6642 0.00510131 -0.11369 20.7042 0.00342806 -0.241246 20.5741
0.00404771 -0.312821 20.5472 0.00556086 -0.145641 20.4126 0.00531641 -0.163294 20.4181 0.00455536
-0.352587 20.1614 0.00305061 -3.5051e-17 19.9876 0.00361967 -0.210277 20.247 0.00428014 -0.310392
20.3158 0.00479439 -0.143712 20.3037 0.00477037 -7.32748e-15 20.059 0.00174489 4.08633e-15 20.0103
0.000957583 5.41392e-15 20.0017 0.000495741 1.35479e-15 20.0001 0.000211033 -5.4134e-15 19.9999 9.81895e-05
-0.000188456 20.5338 -0.00220048 -0.595112 20.5245 -0.00301669 -0.597572 20.5335 -0.00228279 -0.507124
20.5133 -0.00209248 -0.519787 20.4685 -0.0024659 -0.650866 20.3077 -0.00281724 -0.833304 20.3996
-0.00293236 -1.00414 21.9399 0.0253387 -5.07361 21.69 0.0251433 -4.98581 20.9647 -0.00454117
-0.359274 21.0883 -0.00533359 -0.395816 21.0733 -0.00690173 -0.307065 20.9059 -0.00849727 -0.0661431
20.9278 -0.00898312 -0.0612006 20.9182 -0.00657481 -0.0457845 20.8879 0.000304705 0.0211892 20.901
0.000367363 0.0190703 20.9068 0.00187904 0.0286761 20.9673 0.00905766 0.165845 21.0158 0.00969013
0.156866 21.0489 0.0121668 0.192078 20.9825 0.0046364 0.824592 21.2594 0.00536703 1.01202
21.2176 0.00425691 1.28332 19.8552 0.00215697 0.979357 19.7857 0.00226614 1.28029 19.1636
0.00222056 1.2996 18.9777 0.00244391 1.90036 18.2033 0.00244811 2.07756 19.1174 -0.0016493
-2.06764 18.9743 -0.00159522 -2.50726 21.5381 0.0262881 -5.38859 21.6473 0.0228819 -5.92244
7.53395 0.00362061 -0.520403 7.95417 0.00330962 -1.06295 9.961 0.0017304 -0.729285 3.10572
-0.00136139 -0.553133 3.42025 -0.00116006 -1.10596 6.11557 -0.00177826 -0.812636 6.02789 -0.00125612
0.0114043 1.63236 -0.00154543 -0.285847 1.77468 -0.00145699 -0.587516 17.2167 0.00234589 2.01159
17.2448 0.00217465 0.534562 15.6523 0.00210883 0.885956 15.4468 0.00200186 -0.0036933 18.8681
-0.00242537 2.10718 19.0787 -0.0027588 1.67977 19.1311 -0.00283984 2.05365 18.9904 -0.0025595
2.49014 21.9392 -0.0476927 5.85192 21.5646 -0.043568 5.73441 21.4698 -0.0414004 5.26174
6.12251 -0.00156851 0.835271 3.42488 -0.000833162 1.13832 22.424 -0.0229054 6.11828 15.6577
0.00191965 -0.892393 18.1243 0.00227823 -1.24923 17.2257 0.00191599 -2.01371 18.207 0.00201366
-2.0793 20.5215 -0.00955131 0.495959 20.5046 -0.0118804 0.582293 20.4714 -0.0076191 0.710146
20.587 -0.00174527 1.04317 20.4025 -0.00245369 0.997567 20.3107 -0.00362983 0.828067 20.4713
-0.00456307 0.646033 20.9312 0.00059988 0.923231 20.7819 -0.000629912 1.06283 21.0408 0.00753931
0.245893 21.0709 0.00762605 0.307492 21.0834 0.00669877 0.395606 20.9609 0.00572562 0.35759
20.9942 0.00567624 0.154408 21.0205 0.0069199 0.192135 20.9113 0.00434419 0.0340047 20.919
0.00451066 0.0442018 20.9278 0.00390604 0.0598574 20.9062 0.00249905 0.0644269 20.9011 0.00278395
0.0145991 20.906 0.00388406 0.0240092 20.9146 0.000692116 -0.0389991 20.9068 0.00127573 -0.0288265
20.9008 0.00101662 -0.0191418 20.8885 0.0009345 -0.0213003 20.9364 -0.00183821 -0.064595 20.925
-0.000332956 -0.0492361 21.081 -0.00400082 -0.242374 21.0488 -0.00389089 -0.191218 21.0156 -0.00430348
-0.155826 20.9675 -0.00334734 -0.164338 21.161 -0.00558087 -0.383417 21.1252 -0.00459311 -0.298796
21.0295 -0.00291171 -1.49134 21.2114 -0.00443808 -1.26873 21.2505 -0.00582116 -1.00198 20.9792
-0.0048023 -0.815468 18.9793 0.00215828 -1.90193 20.4239 -0.000279237 -1.77332 20.6954 -0.00148437
-1.73681 19.6479 0.0029467 -1.00713 19.7896 0.00257904 -1.27526 19.858 0.00292543 -0.975066
20.4563 -0.0018592 -0.839214 20.4114 -0.00218475 -0.661996 19.1493 -0.00164938 -2.09686 20.4589
-0.00183837 -0.84932 19.6169 -0.00169954 -1.28136 19.5122 -0.00164622 -2.42923 19.5705 -0.00155341
-2.03709 19.6349 -0.00143241 -1.63736 21.4373 0.0188027 -4.92181 18.8408 -0.00161087 -0.561586
19.103 -0.0015908 -0.757452 18.5569 -0.00162574 -0.418807 19.2942 -0.00162857 -1.12487 18.6554
-0.00162819 -1.25996 18.4173 -0.00163766 -1.67505 18.587 -0.00159709 -2.357 18.4501 -0.0016292
-0.365127 10.5361 0.00144437 -1.40228 13.3847 -0.000173247 -0.790223 13.2435 -0.000148222 0.0240496
19.6712 0.000816718 -3.67549 19.682 0.000880053 -3.68356 19.6991 4.86768e-05 -3.27986 19.74
-0.00082166 -2.85284 19.7207 -0.00141308 -2.70673 19.313 -0.00107038 -3.3114 19.3246 -0.00102118
-3.32956 17.8084 -0.00155078 -3.63129 17.964 -0.00155537 -2.69322 16.8872 -0.00111019 -3.17812
16.6059 -0.00116251 -4.00449 16.8603 -0.00106597 -4.97052 17.3954 -0.00132929 -4.53658 17.74
-0.0015302 -3.89545 10.5861 -0.00935268 1.75981 9.63145 -0.0144808 2.64489 9.04356 -0.0112884
2.56846 9.88097 -0.00731675 1.70555 4.7474 0.000809461 -4.50416 2.55078 0.000288127 -5.07595
2.4434 0.000319526 -5.39838 2.79533 0.000317209 -5.63145 5.20075 -0.000556862 -4.94828 16.8092
0.00221061 5.55102 15.0364 0.00189473 5.86847 16.2103 0.00225293 4.31939 17.4085 0.00244771
3.91034 13.4382 0.00189863 3.16514 13.9996 0.00195923 3.90924 11.9451 0.00155491 5.1934
10.8834 0.00148462 4.38543 18.8478 -0.00179524 0.560443 13.3887 -0.000259688 0.751405 13.4053
-0.000272326 0.834489 10.5756 0.00143137 1.48065 10.5127 0.00146634 1.41076 19.4577 -0.0020733
0.718991 19.11 -0.00195961 0.753308 19.3036 -0.00239816 1.1165 18.6049 -0.00229639 2.34313
18.4332 -0.00224755 1.66709 18.6672 -0.00199758 1.25433 5.20094 -0.00437724 -0.0138151 4.98875
-0.00443389 -0.551115 5.31479 -0.00437895 -1.04551 6.99782 -0.00389031 -0.673998 7.09085 -0.00378669
-0.00727068 19.6294 -0.00368794 1.26944 19.5263 -0.0027535 2.41666 20.0381 -0.0107586 0.909058
19.9748 -0.0192188 0.661296 19.8766 -0.0177151 0.565451 20.0367 -0.0107125 0.910366 19.8739
-0.0141901 0.806146 20.4324 0.0123178 0.619439 20.4348 0.0188597 0.895142 20.3355 0.05123
0.73916 21.2651 -0.0140019 5.08621 21.4118 -0.000798624 4.39602 21.6135 -0.0155998 4.43302
20.0387 -0.0106697 0.911648 20.4448 0.0156054 0.910823 21.097 -0.00648042 0.814325 20.9762
-0.00548337 0.719115 21.093 -0.00693856 0.736345 20.3846 -0.00365034 0.217289 20.3594 -0.00415516
0.298694 20.1145 -0.00374193 0.419109 19.8993 -0.00235313 0.254844 20.0995 -0.00158137 0.0822345
20.3659 -0.00222012 0.0502839 20.5177 -0.00155585 1.64546 20.9197 -0.00071232 1.59225 21.1214
-0.00106001 2.04009 20.7889 -0.00131284 2.21898 20.4277 -0.00188459 2.1363 21.5351 0.00376658
0.708077 21.5995 0.00247612 0.849509 21.6126 0.00184316 1.04467 21.3417 0.00191678 0.984446
21.3487 0.00366629 0.717534 21.1284 0.00792484 0.220684 21.083 0.00759275 0.169635 21.1117
0.00801368 0.145359 21.1401 0.00815932 0.164413 21.1688 0.0081609 0.191497 21.0001 0.00630137
0.0675161 21.0144 0.00659087 0.0743758 21.0292 0.00684714 0.0865648 21.0133 0.00598443 0.102696
20.9871 0.00534517 0.0807335 20.9253 0.00504848 0.0271868 20.9177 0.0044145 0.0191207 20.9221
0.00481471 0.0156583 20.9265 0.0052282 0.0194752 20.9311 0.00548763 0.0223787 20.9126 0.00217073
-0.00115771 20.9126 0.00256173 0.00050888 20.913 0.00296506 0.00405877 20.9093 0.00247912 0.00481657
20.9082 0.00171075 -0.0014602 20.9285 0.000319622 -0.0311794 20.9406 -0.000740067 -0.0404171 20.9465
-0.000970413 -0.0333732 20.9402 -0.000396483 -0.0280121 20.9343 0.000104055 -0.0256562 21.0104 -0.00462168
-0.067759 20.9968 -0.00416177 -0.060317 20.9839 -0.00357102 -0.0539414 20.975 -0.00343784 -0.0653472
20.9985 -0.00445989 -0.0818403 21.1582 -0.00539495 -0.206985 21.2216 -0.0059386 -0.264619 21.2658
-0.0066769 -0.226601 21.2279 -0.0064515 -0.195081 21.1913 -0.00618578 -0.175287 21.6217 -0.00741626
-0.545652 21.5494 -0.00756698 -0.456988 21.4758 -0.00753537 -0.398215 21.3875 -0.00723499 -0.451555
21.4911 -0.00734163 -0.604649 16.8174 -0.000299233 -5.57114 18.2695 -6.92348e-05 -4.91254 18.3255
0.000814701 -3.77297 17.4121 0.000837747 -3.91967 21.5495 -0.00306002 -2.17955 21.1758 -0.00175419
-2.74548 21.2658 -0.00206319 -3.57925 21.7661 -0.0024872 -3.24196 22.1215 -0.00308031 -2.6611
19.367 0.00102536 -2.79287 19.7502 0.00038379 -3.26551 19.8803 0.000535741 -2.64699 19.578
0.00125554 -2.23875 21.1378 -0.00150049 -1.26401 21.1132 0.00085836 -0.740988 20.9398 -0.0020887
-0.713815 20.9312 -0.00202373 -1.02963 20.1141 -0.00352303 -0.417913 20.3973 -0.00339153 -0.28098
20.3719 -0.00487019 -0.0442348 20.1011 -0.00444142 -0.075933 19.8979 -0.00470235 -0.250153 20.515
-0.00359744 -1.65513 20.1541 -0.00345497 -1.44956 19.858 -0.00428079 -1.78449 20.084 -0.00387316
-2.04865 20.424 -0.00428196 -2.14678 19.7037 -0.00441032 -0.433825 19.622 -0.00426883 -0.689334
19.9482 -0.00344216 -0.716551 20.7881 -0.00425404 -2.23011 21.1236 -0.00450504 -2.04972 20.9206
-0.00387633 -1.60149 21.3595 -0.0048417 -0.719121 21.35 -0.00449939 -0.988098 21.6217 -0.00511728
-1.04541 21.6104 -0.00560471 -0.849016 21.5468 -0.00546515 -0.707554 21.1282 -0.0101018 -0.220129
21.1831 -0.00808718 -0.288861 21.2394 -0.00879534 -0.255831 21.2037 -0.00982174 -0.216368 21.1682
-0.0106667 -0.191049 21.5017 -0.00591742 -0.579367 21.4356 -0.00611894 -0.490963 21.3118 -0.00544392
-0.523495 21.1388 -0.0116276 -0.164029 21.1102 -0.01239 -0.145038 21.0817 -0.0120994 -0.169328
20.9862 -0.013046 -0.0808925 21.0118 -0.013963 -0.102701 21.0276 -0.0137794 -0.0864928 21.013
-0.0135094 -0.0743335 20.9989 -0.0128904 -0.0675069 20.9232 -0.00512646 -0.028584 20.934 -0.00689767
-0.0380431 20.9402 -0.00715995 -0.0315867 20.9345 -0.00626193 -0.0261193 20.9291 -0.00544434 -0.0235636
20.9864 -0.0121343 -0.0595191 20.9744 -0.0112095 -0.0528145 20.965 -0.0112268 -0.0635829 20.924
-0.00475516 -0.0205346 20.9193 -0.00420912 -0.0165856 20.9147 -0.00393225 -0.0202237 20.9066 -0.00201114
0.00166599 20.9066 -0.00285035 -0.00494329 20.9104 -0.00275379 -0.00414106 20.9106 -0.00234161 -0.000388621