# vtk DataFile Version 2.0
sampleSurface
ASCII
DATASET POLYDATA
POINTS 7981 float
-594.999 0 -300 -700 0 -300 -700 0 -225 -594.998 0
-225 -489.997 -6.77626e-21 -300 -489.997 0 -224.999 -384.996 1.35525e-20 -300
-384.995 0 -224.999 -279.995 0 -300 -279.993 0 -224.998 -174.995
-2.71051e-20 -300 -174.993 0 -224.997 -69.9955 5.42101e-20 -300 -122.493 2.67332e-15
-224.996 -69.9938 0 -224.998 35.0032 0 -300 -17.494 8.04478e-17 -224.999
35.005 1.0842e-19 -225 35.0036 0 -262.5 87.5027 1.73798e-15 -300 87.5032
0 -262.5 140.003 1.16508e-15 -262.5 192.502 0 -262.499 192.502 4.39069e-15
-300 140.002 0 -300 245.001 -1.02663e-15 -262.499 297.501 0 -262.498
297.501 -9.74372e-16 -300 245.001 1.0842e-19 -300 350 -1.52374e-15 -262.498 402.5
1.0842e-19 -262.498 402.5 -1.22255e-15 -300 350 -1.0842e-19 -300 454.999 -4.20128e-16
-262.498 507.499 1.0842e-19 -262.498 507.498 -2.10064e-15 -300 454.999 0 -300
559.997 -2.85828e-15 -262.498 612.496 -1.0842e-19 -262.499 612.495 1.76096e-15 -300 559.997
-1.0842e-19 -300 664.993 -1.25529e-15 -262.499 717.49 0 -262.5 717.49 -3.43822e-15
-300 664.993 1.0842e-19 -300 874.978 0 -300 769.986 0 -300
769.986 -2.33331e-15 -262.5 769.981 0 -225 822.471 -1.86342e-15 -225.001 874.968
5.42101e-20 -225 979.975 0 -300 979.967 0 -225 1084.98 -2.71051e-20
-300 1084.97 2.71051e-20 -225 1189.98 0 -300 1189.98 0 -225
1294.99 -1.35525e-20 -300 1294.99 0 -225 1400 -2.34379e-15 -225 1400
1.35525e-20 -300 -700 0 -150 -594.998 -6.77626e-21 -150 -489.995 -6.77626e-21
-149.999 -384.992 -1.35525e-20 -149.998 -279.989 0 -149.996 -174.987 -5.47847e-16 -149.992
-174.991 -2.71051e-20 -187.495 -122.491 0 -187.495 -69.9921 -2.36329e-15 -187.496 -17.4925
-1.0842e-19 -187.498 87.5043 9.28402e-16 -225.002 35.0068 -1.89584e-15 -187.502 61.2492 1.59681e-15
-187.541 87.5056 0 -187.513 140.005 -2.00317e-15 -187.513 166.254 2.14629e-15 -187.573
192.503 -2.1684e-19 -187.508 192.502 0 -224.999 140.003 0 -225.001 245.001
-1.26223e-15 -187.505 271.251 -4.81169e-16 -187.566 297.501 0 -187.503 297.501 0
-224.996 245.001 0 -224.998 350 1.95915e-15 -187.502 376.25 5.41884e-16 -187.565
402.5 0 -187.502 402.5 0 -224.996 350 0 -224.996 455
4.35416e-16 -187.502 481.25 1.558e-15 -187.565 507.5 0 -187.503 507.499 -2.1684e-19
-224.996 454.999 2.1684e-19 -224.996 560 -1.05883e-15 -187.504 586.25 8.13368e-16 -187.567
612.5 0 -187.506 612.497 0 -224.998 559.998 0 -224.997 665
2.47415e-16 -187.508 691.256 1.87415e-15 -187.51 717.49 0 -187.501 717.489 0
-225 664.994 0 -224.999 769.975 2.13252e-15 -187.501 822.462 0 -187.501
874.957 -3.33067e-15 -187.501 874.936 0 -150.001 979.946 0 -150.001 1084.96
0 -150.001 1189.97 0 -150 1294.99 -1.35525e-20 -150 1400 2.44353e-15
-150 -700 0 -74.9999 -594.997 0 -74.9997 -489.994 0 -74.9993
-384.989 0 -74.998 -279.98 -2.71051e-20 -74.994 -174.966 -3.5831e-15 -74.9817 -175.042
0 -112.513 -122.487 2.71051e-20 -149.991 -122.538 0 -112.545 -70.0149 1.16226e-15
-131.274 -43.7389 0 -131.241 -43.7648 8.67362e-19 -150.038 -69.9896 -5.42101e-20 -149.992
41.1247 -2.1684e-19 -131.373 35.0001 -1.0842e-19 -145.091 34.9986 0 -131.322 140.008
-2.51535e-16 -131.469 153.13 -5.85469e-16 -131.461 166.257 4.33681e-19 -131.458 166.256 0
-150.154 140.007 0 -150.144 245.001 9.68409e-16 -131.437 258.126 4.30211e-16 -131.439
271.25 4.33681e-19 -131.445 271.251 -4.33681e-19 -150.14 245.001 0 -150.126 350
9.19837e-16 -131.436 363.125 3.62557e-16 -131.438 376.25 4.33681e-19 -131.444 376.25 0
-150.139 350 0 -150.124 455 6.72639e-16 -131.436 468.125 9.52797e-16 -131.438
481.25 0 -131.444 481.25 4.33681e-19 -150.139 455 0 -150.124 560
-1.56125e-16 -131.437 573.126 -3.95517e-16 -131.439 586.252 0 -131.446 586.251 0
-150.141 560 -4.33681e-19 -150.125 665.036 -2.27682e-16 -131.448 678.223 1.52222e-16 -131.436
691.391 2.1684e-19 -131.398 691.335 2.1684e-19 -150.098 665.025 0 -150.131 769.996
6.88035e-16 -131.291 770.003 1.66165e-15 -112.564 822.468 0 -112.496 822.443 -2.64719e-15
-150.002 769.976 0 -150.01 874.898 -2.05944e-15 -112.501 874.845 1.0842e-19 -75.0013
979.908 0 -75.0013 1084.95 0 -75.001 1189.97 0 -75.0007 1294.98
0 -75.0005 1400 9.93582e-15 -75.0004 -700 3.38813e-21 -5.72304e-05 -594.997 0
-7.6816e-05 -489.993 6.77626e-21 -0.000116721 -384.986 1.35525e-20 -0.000163077 -280.089 -8.67362e-19 0.0558625
-175.074 -5.25404e-16 0.00335334 -175.025 0 -37.5011 -122.562 -2.71051e-20 -72.9365 -122.561
0 -75.0498 -155.702 0 -37.5077 -63.3483 1.35525e-20 -75.0926 -70.0553 0
-75.0911 -70.0605 6.79409e-16 -65.7232 -68.6047 1.69407e-21 -65.7244 34.986 0 -75.0512
34.9795 -3.98986e-17 -73.8989 36.9971 -4.33681e-19 -73.5755 36.642 -8.67362e-19 -75.0089 769.928
-1.9095e-15 -56.2604 769.811 -5.16297e-16 -37.501 822.384 0 -37.5037 822.398 -2.1684e-19
-75.0054 769.919 2.1684e-19 -75.0268 874.877 1.27849e-15 -37.4969 874.75 0 -0.00319055
979.88 0 -0.00258442 1084.94 0 -0.00172148 1189.96 -2.71051e-20 -0.00107926 1294.98
2.71051e-20 -0.000692181 1400 -1.76817e-15 -0.000518079 -700 0 74.9998 -594.997 0
74.9996 -489.994 0 74.999 -385.121 0 75.0756 -280.13 0 75.0339
-175.132 6.25163e-16 75.065 -175.108 -1.35525e-20 37.5271 -137.624 0 37.543 -122.618
3.38813e-21 31.1048 -122.604 0 18.774 -122.595 -1.0842e-19 0.00160859 -70.0522 0
0.00137791 -70.0712 -1.59215e-16 2.34763 -66.7567 0 2.3453 -66.6893 2.71051e-20 1.16896
-66.6788 0 0.00102337 140.57 0 -0.000701733 140.61 1.59412e-16 4.68711 147.092
0 4.68742 147.089 8.47033e-22 2.3437 147.079 0 -0.000115042 769.672 8.57604e-17
18.7477 769.818 1.56364e-15 37.4984 822.375 0 37.5044 822.289 -1.0842e-19 -0.00139072
769.67 0 -0.00120793 874.872 1.34636e-15 37.4981 874.931 0 75.0096 979.906
-1.0842e-19 74.9957 1084.94 5.42101e-20 74.9976 1189.97 0 74.9987 1294.98 0
74.9992 1400 1.06882e-15 74.9994 -385.123 1.35525e-20 125.208 -467.393 0 150.013
-385.123 1.35525e-20 150.066 -280.139 0 133.803 -280.142 5.42101e-20 150.071 -175.117
0 150.111 -175.127 2.71051e-20 112.607 -175.132 8.47033e-21 76.5976 -700 0
150 -594.998 0 149.999 -489.995 0 149.999 -173 -8.47033e-22 75.0666
-43.8386 5.42101e-20 82.1741 -61.7019 4.33681e-19 93.8719 -43.8344 0 93.8496 -43.8397
0 84.47 34.9672 8.67362e-19 75.1266 34.9631 6.07153e-17 76.3154 36.5996 0
76.3272 36.5972 0 75.1603 769.851 1.94072e-16 93.7353 769.91 4.87891e-17 112.484
822.388 2.1684e-19 112.488 822.424 0 75.0203 769.938 0 75.0374 874.89
-1.51843e-15 112.491 874.931 0 149.992 979.943 -5.42101e-20 149.996 1084.96 0
149.998 1189.97 0 149.999 1294.99 1.35525e-20 149.999 1400 3.13531e-15 150
-490.027 -1.69407e-21 191.871 -550.997 0 225.02 -490.052 0 225.049 -385.109
0 225.056 -280.111 0 225.088 -175.063 0 225.071 -175.095 -1.04734e-15
187.6 -700 1.69407e-21 225 -594.998 0 225 -69.9883 1.35525e-20 149.988
-69.9918 1.15912e-15 187.493 -17.4927 -2.71051e-20 187.494 -17.4935 -2.71051e-20 187.264 -69.8343
0 149.989 34.9964 -8.67362e-19 150.059 34.9742 2.328e-15 168.92 61.2353 4.33681e-19
168.925 61.2356 0 150.177 140.007 -2.1684e-19 150.162 140.005 2.2031e-16 168.912
166.254 0 168.906 166.255 0 150.151 245.001 0 150.163 245.001
-8.48063e-16 168.916 271.251 2.1684e-19 168.914 271.251 0 150.173 350 4.33681e-19
150.176 350 -7.54822e-16 168.91 376.25 0 168.911 376.25 0 150.177
455 -4.33681e-19 150.176 455 1.86136e-15 168.909 481.25 2.1684e-19 168.911 481.25
-4.33681e-19 150.177 560 0 150.178 559.999 1.82363e-16 168.913 586.249 0
168.917 586.25 -2.1684e-19 150.182 665.03 0 150.193 665.023 9.37618e-16 168.922
691.243 2.1684e-19 168.722 691.248 2.1684e-19 149.967 822.435 -1.0842e-19 149.988 769.955
1.63931e-15 149.984 769.97 1.98474e-15 187.486 822.458 0 187.49 874.953 -1.11022e-15
187.492 874.965 0 224.995 979.965 -5.42101e-20 224.997 1084.97 0 224.999
1189.98 0 224.999 1294.99 1.35525e-20 225 1400 5.69857e-15 225 -557.446
-1.69407e-21 300 -490.046 0 300 -385.098 0 300 -280.093 4.33681e-19
300 -175.043 0 300 -76.1356 -9.48677e-20 300 -70.9141 1.35525e-20 224.996
-122.548 1.52656e-15 225.065 -700 7.74253e-15 300 -594.999 -3.38813e-21 300 -69.994
0 224.995 -69.9962 0 300 -69.9956 0 262.498 -66.9054 -1.35525e-20
262.501 -69.5321 1.35525e-20 224.996 34.987 -1.35525e-20 225.11 34.9914 0 245.756
48.6354 6.77626e-21 262.555 87.5011 -2.71051e-20 262.555 87.5003 0 225.111 140.003
0 225.108 140.002 4.23766e-15 262.554 192.502 1.0842e-19 262.552 192.502 -1.0842e-19
225.104 245.001 0 225.099 245.001 4.05719e-15 262.55 297.501 0 262.548
297.501 1.0842e-19 225.096 350 0 225.095 350 4.93019e-15 262.548 402.5
-1.0842e-19 262.547 402.5 0 225.094 454.999 0 225.095 454.999 3.44917e-15
262.547 507.498 -1.0842e-19 262.548 507.499 0 225.095 559.998 0 225.097
559.997 -2.99446e-15 262.549 612.495 -1.0842e-19 262.55 612.497 0 225.1 665.007
0 225.1 664.999 -1.53902e-15 262.55 717.488 0 262.493 717.486 0
224.987 874.976 5.42101e-20 300 822.468 -1.0842e-19 224.992 769.978 1.0842e-19 224.99
769.984 2.22619e-15 262.494 769.984 -5.42101e-20 300 979.974 0 300 1084.98
0 300 1189.98 0 300 1294.99 0 300 1400 0
300 35.0007 1.0842e-19 -150.05 48.1118 -4.33681e-19 -131.431 61.2412 0 -131.442
61.2454 -8.16187e-16 -150.132 113.757 1.61373e-15 -150.161 113.759 0 -131.483 126.884
0 -131.48 36.6261 0 -76.2272 34.9816 0 -76.238 218.752 -3.57353e-16
-150.144 218.752 0 -131.448 231.876 0 -131.44 323.75 1.03563e-15 -150.139
323.75 0 -131.444 336.875 0 -131.438 428.75 -4.93529e-16 -150.139 428.75
0 -131.444 441.875 0 -131.438 533.75 7.76722e-16 -150.139 533.75 -4.33681e-19
-131.444 546.875 0 -131.438 638.758 3.45644e-16 -150.146 638.763 0 -131.452
651.896 0 -131.45 743.79 2.27682e-16 -150.061 743.801 0 -131.328 769.993
1.11586e-15 -93.8109 743.802 -4.33681e-19 -93.8571 743.703 0 -75.0596 -56.9292 0
-75.094 -56.9379 0 -65.7339 33.3342 -4.51028e-17 -75.0811 33.3312 0 -73.9207
-66.6946 -1.14465e-16 -1.1662 -66.7666 0 -2.34209 -70.0751 2.71051e-20 -2.34396 140.61
-6.28085e-16 -4.68798 140.61 0 -9.376 127.471 0 -9.37901 127.406 0
-0.00361664 147.088 5.84165e-17 -2.34381 147.091 1.69407e-21 -4.68759 743.677 -2.1684e-19 -56.2792
769.679 -1.47712e-15 -18.7503 743.335 -1.0842e-19 -18.7499 743.292 0 -0.00040476 -70.0909
[...]
POINT_DATA 7981
FIELD attributes 1
U 3 7981 float
20.0007 0.00126568 -5.41449e-15 20.0001 0.000275732 2.44228e-15 20 0 0 20 0.0012784
-0.0022921 20.0034 0.00281744 -1.3523e-15 20.0003 0.00286127 -0.00736841 20.0118 0.00505684 2.70743e-15
20.0027 0.00518238 -0.0210677 20.0375 0.00848565 1.37612e-15 20.0157 0.00892473 -0.0600527 20.1114
0.0136223 2.71741e-15 20.0618 0.0148406 -0.159334 20.3067 0.0205604 -2.72004e-15 20.1004 0.0194958
-0.250129 20.2222 0.0250326 -0.327533 20.641 0.0276359 0 20.3909 0.0330515 -0.439259
20.6337 0.0392416 -0.387972 20.6678 0.0295978 -0.149676 20.8274 0.0287156 0 20.8253
0.0309079 -0.128074 20.9528 0.0266349 -0.0739156 20.9829 0.0184342 -0.0302434 20.9832 0.0178778
-2.61084e-18 20.9506 0.024665 2.83883e-15 20.9713 0.00973463 -0.0115805 20.9585 0.00202349 -0.00388221
20.9668 0.00310501 5.6738e-15 20.9767 0.0104334 -2.84142e-15 20.9509 -0.00329979 -0.000222005 20.9445
-0.0073864 0.00335804 20.9531 -0.00634978 -5.66946e-15 20.9596 -0.00227864 2.83882e-15 20.9371 -0.0108799
0.00845084 20.9271 -0.0139286 0.0170467 20.9337 -0.0126469 4.37832e-18 20.945 -0.00971356 1.20117e-18
20.9105 -0.0167385 0.0314636 20.8793 -0.0195284 0.0542508 20.881 -0.0179065 0 20.9148
-0.0153824 -2.83129e-15 20.8231 -0.0219991 0.084843 20.7314 -0.0239545 0.12095 20.7342 -0.0217257
2.58836e-18 20.8233 -0.0200578 -2.80509e-15 20.3795 -0.0231276 -6.63055e-21 20.6158 -0.0229205 3.74362e-15
20.6328 -0.0246449 0.131373 20.6143 -0.0258983 0.295783 20.4411 -0.0250819 0.263525 20.3275
-0.0247259 0.15307 20.2512 -0.0217554 1.36996e-15 20.2297 -0.0238546 0.0673944 20.22 -0.020743
4.60324e-18 20.2065 -0.0225703 0.0329911 20.2083 -0.0201053 -1.36546e-15 20.1965 -0.021388 0.0125953
20.2027 -0.0196292 0 20.1967 -0.0210183 0.00212117 20.1997 -0.0212829 -0.00227432 20.2003
-0.0193627 -0.00954119 20 0 0 19.998 0.00131065 -0.00326806 19.9923 0.0029655
-0.010427 19.9777 0.00550338 -0.0314419 19.9453 0.01003 -0.0963544 19.8916 0.0185028 -0.283936
20.0033 0.0169809 -0.246224 20.0311 0.0220649 -0.354662 20.1258 0.0306161 -0.530925 20.3475
0.0433486 -0.693366 20.861 0.0422237 -0.285119 20.6891 0.0588699 -0.767268 20.9012 0.0682925
-0.743713 21.0511 0.0704253 -0.571792 21.1823 0.0623108 -0.233407 21.1723 0.0525026 -0.12472
21.1141 0.0383123 -0.0755436 21.0153 0.0245293 -0.0543119 20.9995 0.0365389 -0.146495 21.0378
0.0168203 -0.029587 21.0164 0.00886038 -0.016414 21.0017 0.00396126 -0.0112072 20.9628 0.00342344
-0.00226902 20.9856 0.0125008 -0.0172773 20.9898 -0.00309408 -0.00586637 20.9894 -0.00620242 -0.00418008
20.9852 -0.00801479 -0.00231582 20.9488 -0.00594115 0.00691287 20.9541 -0.001875 0.00253053 20.9851
-0.0117773 0.00647913 20.9897 -0.0139733 0.0142233 20.9889 -0.0152456 0.0260809 20.9391 -0.0128867
0.029917 20.944 -0.00956518 0.0149227 20.9947 -0.0192848 0.0644844 21.0027 -0.0221665 0.0947965
20.9968 -0.0240518 0.136459 20.9088 -0.0195936 0.102968 20.9302 -0.016156 0.0568112 20.9713
-0.0288736 0.261932 20.9501 -0.0318246 0.347774 20.855 -0.032496 0.411648 20.7587 -0.0253192
0.252307 20.8588 -0.0227717 0.171218 20.6161 -0.0336312 0.483346 20.3843 -0.0329521 0.387823
20.2652 -0.0315582 0.256741 20.1352 -0.0436494 0.320943 20.1208 -0.0423362 0.118234 20.1339
-0.0407859 0.00431889 20.1366 -0.0397395 -0.0601432 20.1402 -0.0395123 -0.0837316 20.143 -0.0395644
-0.0872753 20 0 0 19.996 0.00134497 -0.0024323 19.9837 0.00307487 -0.00755797
19.947 0.00585172 -0.0237967 19.8369 0.0112403 -0.0753921 19.5267 0.0238026 -0.309112 19.7357
0.0222999 -0.369155 19.8789 0.0264626 -0.486733 19.648 0.0313253 -0.623446 19.7871 0.0472239
-1.02603 19.8559 0.0585564 -1.23421 19.992 0.0506687 -1.02785 19.9324 0.0397719 -0.813559
20.8071 0.149148 -1.91163 20.6836 0.109236 -1.46653 20.6852 0.138246 -1.88843 21.6604
0.200917 -0.164693 21.5113 0.175553 -0.0221856 21.3571 0.139179 0.0206379 21.2458 0.0882545
-0.0526858 21.3893 0.119378 -0.223184 21.0246 0.028057 0.00851458 21.0112 0.0203766 -0.00496117
21.0006 0.0151013 -0.0133193 20.9664 0.0116799 0.00499248 20.9932 0.0210707 0.0112062 20.978
-0.00239214 -0.039159 20.9771 -0.00560659 -0.0445732 20.9745 -0.00631076 -0.043122 20.9367 -0.00634788
-0.00724391 20.9386 -0.00288814 -0.00572196 20.9814 -0.0122938 -0.0403268 20.986 -0.0143025 -0.0418368
20.9902 -0.0151507 -0.0328912 20.9503 -0.0155317 0.0083618 20.9435 -0.0133076 -0.000273705 21.0426
-0.0268875 0.0191076 21.0583 -0.0305201 0.0300466 21.0732 -0.0323924 0.0560424 21.0072 -0.0278799
0.1011 20.9875 -0.0239753 0.0640053 21.2296 -0.053178 0.355782 21.2761 -0.0583222 0.456525
21.2705 -0.0584528 0.608278 21.0555 -0.0467402 0.536804 21.0752 -0.0420742 0.358602 20.6724
-0.058121 1.21265 20.4372 -0.0789845 1.64816 19.8491 -0.0898287 0.95961 20.2787 -0.045504
0.572912 20.6098 -0.0473786 0.857029 19.812 -0.0805468 0.501623 17.5106 -0.123939 0.864044
18.2191 0.0147051 0.35155 18.3878 0.0142305 0.184981 18.4686 0.0144219 0.0773942 18.518
0.0141936 0.0242311 18.5391 0.0145124 0.00610078 20 0 0 19.9952 0.00136685
-0.000362084 19.9798 0.0031428 -0.000860082 19.9321 0.00604848 -0.00161993 19.7764 0.0119028 -0.00319453
19.2043 0.0268001 -0.00675932 19.2198 0.0276455 -0.231404 19.1659 0.0375114 -0.697682 19.2082
0.0369537 -0.691071 18.9777 0.0331239 -0.367082 18.7622 0.0763293 -2.02469 18.8021 0.0689833
-1.79065 18.4408 0.0752505 -2.10869 18.4381 0.0766948 -2.15793 19.3399 0.408912 -5.92917
19.2792 0.395732 -5.88795 18.4671 0.431999 -5.57966 19.495 0.398955 -5.86776 9.89253
-0.250699 3.55504 3.8202 0.251453 2.69213 9.61378 0.167306 1.49323 16.8458 -0.182738
1.65496 16.0284 -0.299097 3.01047 11.8236 0.136704 0.939619 10.0104 0.356143 -0.324176
16.5707 0.0715375 -0.0633563 16.8809 0.0712746 -0.0616408 17.0381 0.0725311 -0.0603093 17.1444
0.0727019 -0.0592081 17.1957 0.0730159 -0.0589388 20 0 0 19.9959 0.00137296
0.00177853 19.9833 0.00314835 0.00600769 19.946 0.00601875 0.0209922 19.8343 0.0116772 0.0699147
19.5198 0.0252943 0.298096 19.2162 0.0285752 0.217609 18.746 0.0399423 0.476663 18.4161
0.0454486 0.524307 18.1446 0.0472829 0.41713 18.1775 0.0448599 -0.00958725 9.91099 0.102946
0.0168866 9.69038 0.104292 0.836244 7.64894 0.111088 1.06799 7.24086 0.11248 0.64165
7.4352 0.111889 0.032508 -7.82743 -8.81819 2.08559 -7.56751 -8.64346 -0.168004 -4.61709
-9.02422 -0.468669 -4.24808 -10.1904 1.08395 -4.3373 -9.60003 2.38679 -0.0614563 0.757775
-2.81925 5.49794 0.161627 -3.47055 10.8019 0.115166 -2.04606 5.71149 0.509866 -0.456556
-0.927979 1.02848 -0.871646 12.8687 0.0886746 -1.37251 17.9512 -0.118298 -0.974766 18.3947
0.00136384 -0.428399 18.58 0.00365536 -0.258518 18.6718 0.00541857 -0.148957 18.7323 0.00611682
-0.094981 18.7612 0.00650746 -0.0769487 19.966 0.00587679 0.0266149 19.9882 0.00368425 0.0135934
19.9758 0.0058064 0.029403 19.9177 0.010963 0.0878585 19.9407 0.0107654 0.0928254 19.8817
0.020345 0.277633 19.7255 0.0242929 0.360133 19.5282 0.0252534 0.300628 20 0
0 19.9978 0.00136288 0.00276775 19.9916 0.00310121 0.00925002 19.5066 0.025891 0.313409
19.0411 0.111761 2.31837 19.2893 0.078621 1.59267 19.3266 0.0999652 1.96017 19.1224
0.110573 2.24278 19.2338 0.559498 5.87231 19.2328 0.562126 5.8741 19.3549 0.574423
5.84127 19.368 0.570956 5.85772 19.652 -0.179742 -2.52832 20.4236 -0.090998 -1.74255
19.8719 -0.0889949 -1.03481 17.3729 -0.172145 -1.79364 16.5174 -0.266879 -3.25633 19.8412
-0.0771531 -0.58116 20.1347 -0.0429486 -0.361087 20.1295 -0.0381707 -0.136332 20.1458 -0.0359923
-0.0227177 20.1504 -0.034726 0.0408161 20.1565 -0.0344378 0.0638582 20.1608 -0.0344563 0.0666918
19.9959 0.00306433 0.00784451 19.9996 0.00205469 0.00398697 19.9993 0.0030351 0.00673082 20.0006
0.00556804 0.0198611 20.0101 0.0097563 0.0585897 20.0527 0.0166749 0.155491 19.9925 0.0189323
0.241464 20 0 0 19.9997 0.00134685 0.00200599 19.9063 0.0457515 0.809407
20.1068 0.0355804 0.526479 20.321 0.0473497 0.716386 20.3205 0.0475562 0.718527 19.9066
0.0458268 0.810692 20.6335 0.12312 1.37131 20.6772 0.109741 1.01933 20.9101 0.111002
0.971962 20.9739 0.152973 1.29465 21.4558 0.160592 0.321893 21.3007 0.105352 0.302468
21.2439 0.0811071 0.137608 21.3302 0.119691 0.101297 21.0365 0.0296419 -0.034118 21.0423
0.0174866 0.000818589 21.0075 0.00666996 -0.00564382 20.9982 0.0177991 -0.0274664 20.9581 0.000823662
-0.00844637 20.9685 -0.0100931 -0.00246609 20.9648 -0.0138605 -0.000757244 20.9555 -0.00277068 -0.00499642
20.9636 -0.0109701 -0.00817209 20.9678 -0.0218823 -0.00580278 20.9739 -0.0244179 -0.0149266 20.9723
-0.0140893 -0.0169201 21.0229 -0.0246543 -0.0801301 21.0058 -0.0323107 -0.0752315 21.0198 -0.0350945
-0.114297 21.0491 -0.0288164 -0.124267 21.1225 -0.0437316 -0.434198 21.0338 -0.0447673 -0.358804
20.9926 -0.0479728 -0.491443 21.0885 -0.0487491 -0.631852 20.2664 -0.0467062 -0.619863 20.5917
-0.0475343 -0.914097 20.6119 -0.0337801 -0.513793 20.3796 -0.0326131 -0.41093 20.2637 -0.0304253
-0.277003 20.3256 -0.0229155 -0.161334 20.2291 -0.0222417 -0.0730626 20.2075 -0.0206654 -0.0406253
20.1979 -0.0194314 -0.021581 20.1978 -0.0190475 -0.0110388 20.2007 -0.0189708 -0.00675681 20.0011
0.00193505 4.86177e-16 20.0023 0.00300322 1.35416e-15 20.0096 0.00547017 -8.37749e-19 20.0316 0.0093166
1.35419e-15 20.1049 0.0154702 0 20.2717 0.023751 0 20.2022 0.0289608 0.316223
20.0883 0.0222954 0.247663 20 0.000289871 -2.44227e-15 20.0005 0.00133991 2.58168e-18 20.2043
0.0290796 0.317445 20.282 0.0242652 0 20.2892 0.0257318 0.146348 20.2968 0.0260472
0.148291 20.2058 0.0291606 0.318153 20.6202 0.0490178 0.425103 20.6153 0.0426903 0.297511
20.663 0.0384215 0.18486 20.8104 0.0409282 0.159708 20.8617 0.0547953 0.33577 21.0139
0.048372 0.179346 20.9547 0.0362004 0.0916433 21.003 0.0259636 0.0378195 21.0433 0.0332941
0.0660379 21.0144 0.0185388 0.0198706 20.9943 0.0155577 0.0155209 20.9795 0.00641415 0.00623914
20.9871 0.00775184 0.00232329 20.9748 0.00145347 -0.00303786 20.9694 5.13644e-05 0.00208586 20.9627
-0.00456865 -0.00131993 20.9692 -0.00313887 -0.00710428 20.9657 -0.00735603 -0.0150305 20.956 -0.00856994
-0.00635514 20.9472 -0.0120787 -0.015492 20.9627 -0.0111931 -0.0310894 20.9556 -0.0148127 -0.061236
20.9313 -0.0152265 -0.0315256 20.8998 -0.018151 -0.0568241 20.9346 -0.0183932 -0.113323 20.881
-0.0215074 -0.188748 20.8405 -0.0205699 -0.0901987 20.7437 -0.0223953 -0.12746 20.7737 -0.0239587
-0.272339 20.3781 -0.0221505 -5.6739e-17 20.4388 -0.0235154 -0.276211 20.6194 -0.0246043 -0.312215
20.6397 -0.0231646 -0.13683 20.6146 -0.0216376 -7.4385e-15 20.2516 -0.0203463 4.11842e-15 20.2221
-0.0189377 5.46769e-15 20.2108 -0.0179787 1.36812e-15 20.2048 -0.0173832 -5.46946e-15 20.2021 -0.0170953
0.00914994 20.683 0.0987954 -1.31458 20.9462 0.161583 -1.93811 21.2149 0.17971 -1.78282
21.0071 0.117583 -1.19698 21.441 0.13745 -0.543957 21.851 0.234613 -0.646244 21.8193
0.230776 -0.353736 19.5036 0.417648 -5.8725 19.3654 0.420036 -5.90915 21.0369 0.0352714
0.0156358 21.0683 0.0490733 0.0337872 21.0437 0.0373543 0.0219788 20.9427 0.000936363 -0.00346818
20.9802 0.00180656 -0.0357221 20.9798 -0.00106286 -0.0418011 20.9392 -0.0112128 -0.00518707 20.9767
-0.00987117 -0.0438822 20.9796 -0.0117035 -0.0466178 20.9719 -0.0206416 0.0385536 21.0196 -0.0224614
-0.00507883 21.0316 -0.0253966 0.000322291 21.0573 -0.0371962 0.238531 21.1683 -0.0457214 0.20437
21.2065 -0.0506098 0.262304 20.8336 -0.048671 0.929428 20.9134 -0.0605838 1.22494 19.536
-0.165564 2.39217 19.7848 -0.184394 2.53075 15.6221 -0.372139 3.32389 18.7241 0.0833595
-2.24869 18.416 0.0882694 -2.55255 19.2198 0.41047 -5.97794 19.1798 0.40155 -6.03006
7.21938 0.112103 -0.573704 7.61963 0.110404 -1.00607 9.66783 0.103658 -0.799874 -6.79745
-7.63502 4.24482 -7.0722 -6.4587 6.21916 -10.8157 -5.58246 3.83473 -11.766 -7.59376
1.684 -3.75089 -8.53675 3.47438 -4.01149 -7.69552 4.56075 8.15937 -0.252198 3.5982
-1.40853 0.900228 1.27649 -5.57565 1.03811 0.827655 -6.43897 1.38407 -1.13915 18.416
0.0836703 2.07645 18.775 0.0773189 1.76354 18.6906 0.0942513 2.2169 18.3851 0.0989245
2.5153 19.2025 0.553738 5.81092 19.0744 0.545671 5.95035 19.0787 0.55436 5.9342
-11.4714 -6.66453 -0.786255 -7.63482 -7.01242 -2.49932 19.2584 0.575179 5.7626 -3.96429
0.866791 -2.56636 11.1269 -0.222607 -3.94564 9.59005 -0.21455 -4.15268 16.1325 -0.31595
-3.72483 21.1459 0.237565 1.90039 20.8753 0.208619 2.02438 20.619 0.172174 1.94836
21.7549 0.277826 0.310139 21.8884 0.316676 0.541945 21.8792 0.319228 0.843587 21.4676
0.183249 0.672343 21.4792 0.198288 0.0413208 21.6316 0.247017 0.129227 21.0634 0.0428341
-0.0510489 21.0942 0.0559 -0.0652574 21.1334 0.072288 -0.0711072 21.0971 0.0483456 -0.0321709
21.0227 0.0254615 -0.0241154 21.0399 0.032142 -0.0367449 20.9876 0.00333995 0.0170453 20.9885
0.00584127 0.0184666 20.9902 0.00975855 0.0101756 20.9638 0.00492928 -0.0131469 20.9864 -0.00163423
0.0217403 20.9879 -0.00109483 0.0208678 20.9944 -0.0104157 0.0283579 20.9928 -0.0104014 0.0329391
20.9899 -0.0073891 0.029443 20.9582 -0.00828407 -0.00428843 21.0048 -0.01387 0.0230859 20.9995
-0.0133782 0.0316521 21.0736 -0.0277634 -0.0342469 21.0581 -0.0264186 -0.0126266 21.0428 -0.0223981
-0.00604226 21.0013 -0.0208455 -0.0504947 21.1148 -0.0339699 -0.0796555 21.0946 -0.0325799 -0.0487844
21.2949 -0.0555952 -0.461125 21.2753 -0.0533112 -0.346208 21.2327 -0.047735 -0.269003 21.1086
-0.0385174 -0.291366 19.9065 -0.202702 -2.74623 21.3105 -0.061061 -0.749473 21.3362 -0.0615086
-0.584592 20.6385 -0.0620417 -1.29143 20.8828 -0.0650157 -1.32782 20.8198 -0.0474586 -1.00889
20.2938 0.102366 -1.6928 20.3802 0.0818923 -1.3512 18.733 0.08475 -2.27563 20.2888
0.103537 -1.71228 19.3017 0.0602292 -1.43815 18.8348 0.10057 -2.58209 19.1704 0.0952768
-2.26668 19.3726 0.0857883 -1.97993 19.2422 0.416325 -5.9159 18.5627 0.0424971 -0.59969
18.8322 0.0419049 -0.74979 18.2596 0.0450874 -0.481489 18.987 0.0491533 -1.11373 18.4939
0.0537537 -1.21412 18.1977 0.0639091 -1.68244 18.0482 0.0770366 -2.33138 18.1456 0.046064
-0.437049 10.2716 0.101208 -1.40036 13.1239 0.0870695 -0.85408 13.0081 0.0878995 0.00138714
18.7203 0.184555 -3.96428 18.7198 0.185657 -3.97198 18.8681 0.176317 -3.60905 18.9961
0.161293 -3.27889 18.944 0.125057 -2.91347 18.7001 0.140205 -3.53692 18.7031 0.14216
-3.56212 17.4376 0.0988586 -3.60405 17.5108 0.0815556 -2.67117 16.6054 0.0861057 -3.06281
16.2423 0.0964703 -3.93475 16.2773 0.108637 -4.84781 16.9755 0.107012 -4.33048 17.3803
0.102929 -3.85046 0.534691 3.02138 -1.78697 0.369827 2.84966 -2.96005 -1.45702 1.77298
-2.83073 -1.59508 1.72336 -1.51774 -5.01747 -0.64667 9.2335 -2.94742 -1.85626 11.2946
-2.49358 -1.56671 10.7544 -2.48178 -1.06438 9.81048 -4.17529 0.324576 8.22575 11.2019
-0.645925 0.655469 6.18909 -0.929978 0.220713 7.76223 -0.825074 1.74877 12.9631 -0.553576
2.08981 -3.97569 0.123998 1.20261 -0.278239 -0.255841 1.7646 -1.35566 -0.429082 -0.00714007
-4.98512 -0.127394 -0.621405 18.5579 0.0444902 0.580322 13.1281 0.0880361 0.766235 13.1418
0.0880518 0.853601 10.3068 0.102389 1.42439 10.2415 0.10259 1.36202 19.196 0.039993
0.675335 18.8229 0.0446661 0.730685 18.9693 0.0540679 1.09346 18.0293 0.0846481 2.29504
18.1835 0.0693757 1.65181 18.4812 0.0579839 1.1893 -9.0732 -1.91829 0.356518 -8.77647
-1.70998 1.23294 -9.03177 -1.70067 1.86572 -11.0647 -3.27919 1.32157 -11.2278 -3.51636
0.784135 19.2717 0.0686217 1.42012 18.7905 0.115415 2.55148 19.8178 0.0681305 1.22967
19.9587 0.0585242 1.02773 19.9053 0.0458095 0.810859 19.8155 0.0680594 1.2292 19.7559
0.0541086 1.01929 20.5158 0.11296 1.35151 20.2382 0.119673 1.69438 20.3356 0.0973935
1.3212 18.957 0.546269 5.95159 19.0083 0.506066 5.69442 19.2044 0.546565 5.80103
19.8163 0.0682313 1.23178 20.2285 0.121915 1.7319 20.7166 0.373046 3.52492 20.8244
0.32675 3.05539 20.7883 0.385573 3.56601 21.87 0.504864 2.73893 21.8357 0.459892
2.49495 22.187 0.528206 2.12199 22.6319 0.821731 2.65446 22.409 0.748375 3.01889
22.0766 0.642842 3.23537 22.1057 0.510147 0.123414 21.823 0.422448 -0.0830441 21.6972
0.667089 -0.193606 21.8796 0.768482 -0.127742 22.124 0.825083 0.0107412 21.0884 0.282593
-0.243329 21.1138 0.33667 -0.263846 21.2023 0.382894 -0.276912 21.4007 0.252642 -0.197443
21.2757 0.190983 -0.186029 21.049 0.0668178 -0.0707735 21.0276 0.0529967 -0.0427353 20.8724
0.0622226 -0.0266504 20.8642 0.0716112 -0.0434152 20.8964 0.0855292 -0.0674466 20.8307 0.0298227
0.0514913 20.8164 0.0334342 0.0450653 20.8425 0.0390865 0.0294648 21.0036 0.0370406 -0.00574478
20.9979 0.0313622 0.0083788 20.9883 0.0124886 0.0402116 20.9869 0.00905354 0.0428609 20.7766
0.00634103 0.113061 20.7568 0.00406873 0.117246 20.7869 0.00556444 0.104345 20.7433 0.00721323
0.133122 20.7217 0.00688112 0.137776 20.7548 0.00764472 0.126587 20.9881 0.00526176 0.0525612
20.9881 0.00350979 0.0576469 20.9938 -0.00606725 0.065836 20.9985 -0.00860381 0.0669635 20.6699
0.000738815 0.155335 20.6418 0.00151306 0.164143 20.6854 0.00239465 0.152107 20.6243 -0.00479363
0.154846 20.5886 -0.00300226 0.165594 20.6385 -0.00263495 0.156022 21.0105 -0.0136665 0.0630369
21.0194 -0.0165418 0.059296 21.0783 -0.030041 0.0242011 21.1021 -0.0344338 0.00630375 20.5937
-0.0211936 0.113975 20.5366 -0.0184524 0.133123 20.5914 -0.0173417 0.129279 20.6568 -0.0385873
0.0323754 20.5782 -0.0341691 0.0626317 20.6244 -0.0316324 0.0674458 21.1671 -0.0439895 -0.0460257
21.211 -0.0496571 -0.0850984 11.7376 -0.393729 -1.41809 17.5077 -0.369981 -1.73292 18.0678
-0.367176 -2.48239 13.6389 -0.376849 -2.77493 21.4737 -0.0772245 -0.443512 21.5457 -0.0848255
-0.633205 21.1486 -0.0919526 -0.572374 21.0242 -0.0825371 -0.414039 20.9979 -0.0779338 -0.328606
21.2709 -0.130657 -1.80416 21.3248 -0.125033 -1.44631 21.6112 -0.0974116 -1.2396 21.3904
-0.100266 -1.51742 20.4358 0.241933 -3.23953 20.9449 0.304293 -3.47378 20.9596 0.234997
-2.71632 20.5738 0.19582 -2.65112 22.2755 0.400506 -1.84411 21.9108 0.345529 -2.32956
22.2579 0.488098 -2.96608 22.5771 0.559153 -2.68848 22.7703 0.607373 -2.27683 21.9341
0.361299 0.126024 22.2404 0.417101 -0.181213 22.5391 0.660148 -0.0251739 22.3033 0.624189
0.224541 22.043 0.54706 0.339926 22.9665 0.678504 -1.90438 22.9966 0.700503 -1.46281
22.4623 0.438138 -1.25892 21.7755 0.486683 0.429589 21.5637 0.407418 0.418402 21.6184
0.289975 0.247222 21.1299 0.126514 0.137313 21.2189 0.16678 0.195499 21.1159 0.214132
0.234828 21.0621 0.184244 0.180118 21.0459 0.155804 0.134511 21.0075 0.0467008 -0.00790151
21.0225 0.0582622 0.0184619 20.9729 0.0643426 -0.0392992 20.9592 0.0551419 -0.0615504 20.9603
0.0486506 -0.0683319 21.0155 0.133721 0.0876424 21.0094 0.114372 0.0555814 21.0761 0.0964146
0.0865055 20.9444 0.0413667 -0.092444 20.9467 0.0381525 -0.096733 20.9971 0.038125 -0.0286479
20.9815 0.0222232 -0.0608914 20.9853 0.0268009 -0.0518268 20.9226 0.0254478 -0.127452 20.9079
0.021776 -0.141853 20.9133 0.0205165 -0.140242 20.978 0.00881784 -0.0798645 20.9769 0.0114097
-0.0791019 20.8873 0.0124069 -0.16499 20.8696 0.0107099 -0.177814 20.877 0.0109155 -0.170719
20.8991 0.017309 -0.154401 20.9053 0.0170168 -0.149922 20.9795 0.0177123 -0.0686809 20.8583
0.0101394 -0.182212 20.8683 0.0112325 -0.173869 20.9779 0.00766042 -0.0813636 20.9768 0.0057527
-0.0914729 20.9778 0.00670772 -0.0881244 20.849 0.0122758 -0.181125 20.8269 0.0121011 -0.192955
20.8381 0.0122158 -0.185496 20.9799 -0.000160303 -0.0926537 20.9779 0.00148072 -0.0931369 20.7986
0.0110225 -0.191564 20.7691 0.0109349 -0.202881 20.784 0.0101735 -0.193696 20.8138 0.0120927
-0.198022 20.8257 0.0122095 -0.188666 20.9757 0.00446292 -0.0942849 20.7527 0.0101765 -0.204755
20.7691 0.00956693 -0.193765 20.9834 -0.00189822 -0.0912847 20.9991 -0.00780159 -0.0806966 20.9925
-0.00573222 -0.0850669 20.7373 0.00793602 -0.190427 20.6996 0.00806746 -0.200147 20.7221 0.0065448
-0.188298 21.0427 -0.0178188 -0.0476 21.0284 -0.0149891 -0.0592094 20.6816 0.000163672 -0.170263
20.6371 -0.00047791 -0.177146 20.6719 -0.00317449 -0.161403 20.6821 0.00661153 -0.196959 20.7073
0.00504313 -0.183437 21.0072 -0.0100629 -0.0751143 20.6256 -0.00420615 -0.166086 20.6655 -0.00692696
-0.147673 21.06 -0.0210643 -0.032581 21.1396 -0.0339685 0.0385399 21.1073 -0.0289496 0.00897672
20.6689 -0.0169632 -0.110338 20.6253 -0.0194919 -0.109829 20.6823 -0.0235818 -0.0844943 21.3598