# vtk DataFile Version 2.0
sampleSurface
ASCII
DATASET POLYDATA
POINTS 7981 float
-594.999 0 -300 -700 0 -300 -700 0 -225 -594.998 0
-225 -489.997 -6.77626e-21 -300 -489.997 0 -224.999 -384.996 1.35525e-20 -300
-384.995 0 -224.999 -279.995 0 -300 -279.993 0 -224.998 -174.995
-2.71051e-20 -300 -174.993 0 -224.997 -69.9955 5.42101e-20 -300 -122.493 2.67332e-15
-224.996 -69.9938 0 -224.998 35.0032 0 -300 -17.494 8.04478e-17 -224.999
35.005 1.0842e-19 -225 35.0036 0 -262.5 87.5027 1.73798e-15 -300 87.5032
0 -262.5 140.003 1.16508e-15 -262.5 192.502 0 -262.499 192.502 4.39069e-15
-300 140.002 0 -300 245.001 -1.02663e-15 -262.499 297.501 0 -262.498
297.501 -9.74372e-16 -300 245.001 1.0842e-19 -300 350 -1.52374e-15 -262.498 402.5
1.0842e-19 -262.498 402.5 -1.22255e-15 -300 350 -1.0842e-19 -300 454.999 -4.20128e-16
-262.498 507.499 1.0842e-19 -262.498 507.498 -2.10064e-15 -300 454.999 0 -300
559.997 -2.85828e-15 -262.498 612.496 -1.0842e-19 -262.499 612.495 1.76096e-15 -300 559.997
-1.0842e-19 -300 664.993 -1.25529e-15 -262.499 717.49 0 -262.5 717.49 -3.43822e-15
-300 664.993 1.0842e-19 -300 874.978 0 -300 769.986 0 -300
769.986 -2.33331e-15 -262.5 769.981 0 -225 822.471 -1.86342e-15 -225.001 874.968
5.42101e-20 -225 979.975 0 -300 979.967 0 -225 1084.98 -2.71051e-20
-300 1084.97 2.71051e-20 -225 1189.98 0 -300 1189.98 0 -225
1294.99 -1.35525e-20 -300 1294.99 0 -225 1400 -2.34379e-15 -225 1400
1.35525e-20 -300 -700 0 -150 -594.998 -6.77626e-21 -150 -489.995 -6.77626e-21
-149.999 -384.992 -1.35525e-20 -149.998 -279.989 0 -149.996 -174.987 -5.47847e-16 -149.992
-174.991 -2.71051e-20 -187.495 -122.491 0 -187.495 -69.9921 -2.36329e-15 -187.496 -17.4925
-1.0842e-19 -187.498 87.5043 9.28402e-16 -225.002 35.0068 -1.89584e-15 -187.502 61.2492 1.59681e-15
-187.541 87.5056 0 -187.513 140.005 -2.00317e-15 -187.513 166.254 2.14629e-15 -187.573
192.503 -2.1684e-19 -187.508 192.502 0 -224.999 140.003 0 -225.001 245.001
-1.26223e-15 -187.505 271.251 -4.81169e-16 -187.566 297.501 0 -187.503 297.501 0
-224.996 245.001 0 -224.998 350 1.95915e-15 -187.502 376.25 5.41884e-16 -187.565
402.5 0 -187.502 402.5 0 -224.996 350 0 -224.996 455
4.35416e-16 -187.502 481.25 1.558e-15 -187.565 507.5 0 -187.503 507.499 -2.1684e-19
-224.996 454.999 2.1684e-19 -224.996 560 -1.05883e-15 -187.504 586.25 8.13368e-16 -187.567
612.5 0 -187.506 612.497 0 -224.998 559.998 0 -224.997 665
2.47415e-16 -187.508 691.256 1.87415e-15 -187.51 717.49 0 -187.501 717.489 0
-225 664.994 0 -224.999 769.975 2.13252e-15 -187.501 822.462 0 -187.501
874.957 -3.33067e-15 -187.501 874.936 0 -150.001 979.946 0 -150.001 1084.96
0 -150.001 1189.97 0 -150 1294.99 -1.35525e-20 -150 1400 2.44353e-15
-150 -700 0 -74.9999 -594.997 0 -74.9997 -489.994 0 -74.9993
-384.989 0 -74.998 -279.98 -2.71051e-20 -74.994 -174.966 -3.5831e-15 -74.9817 -175.042
0 -112.513 -122.487 2.71051e-20 -149.991 -122.538 0 -112.545 -70.0149 1.16226e-15
-131.274 -43.7389 0 -131.241 -43.7648 8.67362e-19 -150.038 -69.9896 -5.42101e-20 -149.992
41.1247 -2.1684e-19 -131.373 35.0001 -1.0842e-19 -145.091 34.9986 0 -131.322 140.008
-2.51535e-16 -131.469 153.13 -5.85469e-16 -131.461 166.257 4.33681e-19 -131.458 166.256 0
-150.154 140.007 0 -150.144 245.001 9.68409e-16 -131.437 258.126 4.30211e-16 -131.439
271.25 4.33681e-19 -131.445 271.251 -4.33681e-19 -150.14 245.001 0 -150.126 350
9.19837e-16 -131.436 363.125 3.62557e-16 -131.438 376.25 4.33681e-19 -131.444 376.25 0
-150.139 350 0 -150.124 455 6.72639e-16 -131.436 468.125 9.52797e-16 -131.438
481.25 0 -131.444 481.25 4.33681e-19 -150.139 455 0 -150.124 560
-1.56125e-16 -131.437 573.126 -3.95517e-16 -131.439 586.252 0 -131.446 586.251 0
-150.141 560 -4.33681e-19 -150.125 665.036 -2.27682e-16 -131.448 678.223 1.52222e-16 -131.436
691.391 2.1684e-19 -131.398 691.335 2.1684e-19 -150.098 665.025 0 -150.131 769.996
6.88035e-16 -131.291 770.003 1.66165e-15 -112.564 822.468 0 -112.496 822.443 -2.64719e-15
-150.002 769.976 0 -150.01 874.898 -2.05944e-15 -112.501 874.845 1.0842e-19 -75.0013
979.908 0 -75.0013 1084.95 0 -75.001 1189.97 0 -75.0007 1294.98
0 -75.0005 1400 9.93582e-15 -75.0004 -700 3.38813e-21 -5.72304e-05 -594.997 0
-7.6816e-05 -489.993 6.77626e-21 -0.000116721 -384.986 1.35525e-20 -0.000163077 -280.089 -8.67362e-19 0.0558625
-175.074 -5.25404e-16 0.00335334 -175.025 0 -37.5011 -122.562 -2.71051e-20 -72.9365 -122.561
0 -75.0498 -155.702 0 -37.5077 -63.3483 1.35525e-20 -75.0926 -70.0553 0
-75.0911 -70.0605 6.79409e-16 -65.7232 -68.6047 1.69407e-21 -65.7244 34.986 0 -75.0512
34.9795 -3.98986e-17 -73.8989 36.9971 -4.33681e-19 -73.5755 36.642 -8.67362e-19 -75.0089 769.928
-1.9095e-15 -56.2604 769.811 -5.16297e-16 -37.501 822.384 0 -37.5037 822.398 -2.1684e-19
-75.0054 769.919 2.1684e-19 -75.0268 874.877 1.27849e-15 -37.4969 874.75 0 -0.00319055
979.88 0 -0.00258442 1084.94 0 -0.00172148 1189.96 -2.71051e-20 -0.00107926 1294.98
2.71051e-20 -0.000692181 1400 -1.76817e-15 -0.000518079 -700 0 74.9998 -594.997 0
74.9996 -489.994 0 74.999 -385.121 0 75.0756 -280.13 0 75.0339
-175.132 6.25163e-16 75.065 -175.108 -1.35525e-20 37.5271 -137.624 0 37.543 -122.618
3.38813e-21 31.1048 -122.604 0 18.774 -122.595 -1.0842e-19 0.00160859 -70.0522 0
0.00137791 -70.0712 -1.59215e-16 2.34763 -66.7567 0 2.3453 -66.6893 2.71051e-20 1.16896
-66.6788 0 0.00102337 140.57 0 -0.000701733 140.61 1.59412e-16 4.68711 147.092
0 4.68742 147.089 8.47033e-22 2.3437 147.079 0 -0.000115042 769.672 8.57604e-17
18.7477 769.818 1.56364e-15 37.4984 822.375 0 37.5044 822.289 -1.0842e-19 -0.00139072
769.67 0 -0.00120793 874.872 1.34636e-15 37.4981 874.931 0 75.0096 979.906
-1.0842e-19 74.9957 1084.94 5.42101e-20 74.9976 1189.97 0 74.9987 1294.98 0
74.9992 1400 1.06882e-15 74.9994 -385.123 1.35525e-20 125.208 -467.393 0 150.013
-385.123 1.35525e-20 150.066 -280.139 0 133.803 -280.142 5.42101e-20 150.071 -175.117
0 150.111 -175.127 2.71051e-20 112.607 -175.132 8.47033e-21 76.5976 -700 0
150 -594.998 0 149.999 -489.995 0 149.999 -173 -8.47033e-22 75.0666
-43.8386 5.42101e-20 82.1741 -61.7019 4.33681e-19 93.8719 -43.8344 0 93.8496 -43.8397
0 84.47 34.9672 8.67362e-19 75.1266 34.9631 6.07153e-17 76.3154 36.5996 0
76.3272 36.5972 0 75.1603 769.851 1.94072e-16 93.7353 769.91 4.87891e-17 112.484
822.388 2.1684e-19 112.488 822.424 0 75.0203 769.938 0 75.0374 874.89
-1.51843e-15 112.491 874.931 0 149.992 979.943 -5.42101e-20 149.996 1084.96 0
149.998 1189.97 0 149.999 1294.99 1.35525e-20 149.999 1400 3.13531e-15 150
-490.027 -1.69407e-21 191.871 -550.997 0 225.02 -490.052 0 225.049 -385.109
0 225.056 -280.111 0 225.088 -175.063 0 225.071 -175.095 -1.04734e-15
187.6 -700 1.69407e-21 225 -594.998 0 225 -69.9883 1.35525e-20 149.988
-69.9918 1.15912e-15 187.493 -17.4927 -2.71051e-20 187.494 -17.4935 -2.71051e-20 187.264 -69.8343
0 149.989 34.9964 -8.67362e-19 150.059 34.9742 2.328e-15 168.92 61.2353 4.33681e-19
168.925 61.2356 0 150.177 140.007 -2.1684e-19 150.162 140.005 2.2031e-16 168.912
166.254 0 168.906 166.255 0 150.151 245.001 0 150.163 245.001
-8.48063e-16 168.916 271.251 2.1684e-19 168.914 271.251 0 150.173 350 4.33681e-19
150.176 350 -7.54822e-16 168.91 376.25 0 168.911 376.25 0 150.177
455 -4.33681e-19 150.176 455 1.86136e-15 168.909 481.25 2.1684e-19 168.911 481.25
-4.33681e-19 150.177 560 0 150.178 559.999 1.82363e-16 168.913 586.249 0
168.917 586.25 -2.1684e-19 150.182 665.03 0 150.193 665.023 9.37618e-16 168.922
691.243 2.1684e-19 168.722 691.248 2.1684e-19 149.967 822.435 -1.0842e-19 149.988 769.955
1.63931e-15 149.984 769.97 1.98474e-15 187.486 822.458 0 187.49 874.953 -1.11022e-15
187.492 874.965 0 224.995 979.965 -5.42101e-20 224.997 1084.97 0 224.999
1189.98 0 224.999 1294.99 1.35525e-20 225 1400 5.69857e-15 225 -557.446
-1.69407e-21 300 -490.046 0 300 -385.098 0 300 -280.093 4.33681e-19
300 -175.043 0 300 -76.1356 -9.48677e-20 300 -70.9141 1.35525e-20 224.996
-122.548 1.52656e-15 225.065 -700 7.74253e-15 300 -594.999 -3.38813e-21 300 -69.994
0 224.995 -69.9962 0 300 -69.9956 0 262.498 -66.9054 -1.35525e-20
262.501 -69.5321 1.35525e-20 224.996 34.987 -1.35525e-20 225.11 34.9914 0 245.756
48.6354 6.77626e-21 262.555 87.5011 -2.71051e-20 262.555 87.5003 0 225.111 140.003
0 225.108 140.002 4.23766e-15 262.554 192.502 1.0842e-19 262.552 192.502 -1.0842e-19
225.104 245.001 0 225.099 245.001 4.05719e-15 262.55 297.501 0 262.548
297.501 1.0842e-19 225.096 350 0 225.095 350 4.93019e-15 262.548 402.5
-1.0842e-19 262.547 402.5 0 225.094 454.999 0 225.095 454.999 3.44917e-15
262.547 507.498 -1.0842e-19 262.548 507.499 0 225.095 559.998 0 225.097
559.997 -2.99446e-15 262.549 612.495 -1.0842e-19 262.55 612.497 0 225.1 665.007
0 225.1 664.999 -1.53902e-15 262.55 717.488 0 262.493 717.486 0
224.987 874.976 5.42101e-20 300 822.468 -1.0842e-19 224.992 769.978 1.0842e-19 224.99
769.984 2.22619e-15 262.494 769.984 -5.42101e-20 300 979.974 0 300 1084.98
0 300 1189.98 0 300 1294.99 0 300 1400 0
300 35.0007 1.0842e-19 -150.05 48.1118 -4.33681e-19 -131.431 61.2412 0 -131.442
61.2454 -8.16187e-16 -150.132 113.757 1.61373e-15 -150.161 113.759 0 -131.483 126.884
0 -131.48 36.6261 0 -76.2272 34.9816 0 -76.238 218.752 -3.57353e-16
-150.144 218.752 0 -131.448 231.876 0 -131.44 323.75 1.03563e-15 -150.139
323.75 0 -131.444 336.875 0 -131.438 428.75 -4.93529e-16 -150.139 428.75
0 -131.444 441.875 0 -131.438 533.75 7.76722e-16 -150.139 533.75 -4.33681e-19
-131.444 546.875 0 -131.438 638.758 3.45644e-16 -150.146 638.763 0 -131.452
651.896 0 -131.45 743.79 2.27682e-16 -150.061 743.801 0 -131.328 769.993
1.11586e-15 -93.8109 743.802 -4.33681e-19 -93.8571 743.703 0 -75.0596 -56.9292 0
-75.094 -56.9379 0 -65.7339 33.3342 -4.51028e-17 -75.0811 33.3312 0 -73.9207
-66.6946 -1.14465e-16 -1.1662 -66.7666 0 -2.34209 -70.0751 2.71051e-20 -2.34396 140.61
-6.28085e-16 -4.68798 140.61 0 -9.376 127.471 0 -9.37901 127.406 0
-0.00361664 147.088 5.84165e-17 -2.34381 147.091 1.69407e-21 -4.68759 743.677 -2.1684e-19 -56.2792
769.679 -1.47712e-15 -18.7503 743.335 -1.0842e-19 -18.7499 743.292 0 -0.00040476 -70.0909
[...]
POINT_DATA 7981
FIELD attributes 1
U 3 7981 float
20.0006 0.000196717 -5.41438e-15 20.0001 3.05836e-05 2.44228e-15 20 0 0 19.9998 0.000198161
-0.00214165 20.0029 0.000461017 -1.35208e-15 19.9999 0.000466593 -0.0070059 20.0106 0.000799865 2.70798e-15
20.0016 0.0008123 -0.0204078 20.0351 0.00133226 1.37568e-15 20.0133 0.00139861 -0.0589458 20.1071
0.00214143 2.71655e-15 20.0574 0.00225534 -0.157712 20.3001 0.00335196 -2.72004e-15 20.0945 0.00289427
-0.248555 20.2148 0.00380589 -0.327008 20.632 0.00445537 0 20.3824 0.00511269 -0.440383
20.6256 0.00608209 -0.3884 20.6589 0.00470532 -0.149222 20.8178 0.00461085 0 20.816
0.00490164 -0.125581 20.9405 0.00442631 -0.0688315 20.9653 0.00353357 -0.0266189 20.9672 0.00346709
3.46059e-18 20.9391 0.00419731 2.8397e-15 20.9491 0.00262424 -0.0110593 20.936 0.00183005 -0.0048982
20.9459 0.00192428 5.6686e-15 20.9563 0.00266058 -2.83622e-15 20.9319 0.00137382 -0.00189006 20.9292
0.00107097 0.00204175 20.9384 0.00117239 -5.66859e-15 20.9416 0.00147152 2.83448e-15 20.9247 0.000845901
0.00802809 20.9166 0.000691134 0.0176133 20.9235 0.000850952 -9.88383e-19 20.9331 0.000983975 -2.91873e-18
20.9011 0.000589599 0.0333236 20.8701 0.000524978 0.0579773 20.872 0.000678899 0 20.9057
0.000746667 -2.83253e-15 20.8118 0.000521844 0.0908181 20.7145 0.00049448 0.12872 20.718 0.000628758
-6.95253e-18 20.8122 0.000678704 -2.80769e-15 20.3506 0.000708383 -6.62634e-21 20.5925 0.000550449 3.73436e-15
20.6098 0.000470036 0.13924 20.5886 0.000704769 0.314228 20.4078 0.00105471 0.272327 20.295
0.00113792 0.155911 20.2246 0.000972781 1.36562e-15 20.2012 0.00105456 0.0749576 20.1941 0.00116519
-3.84151e-19 20.1784 0.00121972 0.0417475 20.1843 0.00129406 -1.36611e-15 20.1707 0.00139065 0.0234703
20.1729 0.00139471 0 20.1666 0.00147602 0.0170983 20.1636 0.0015354 0.0160631 20.1631
0.00144553 -0.0110627 20 0 0 19.9979 0.000201179 -0.00299183 19.992 0.000478445
-0.00977255 19.9769 0.000847209 -0.030223 19.9433 0.00154446 -0.094189 19.8871 0.0027186 -0.28036
19.9987 0.00251368 -0.243741 20.0247 0.00324452 -0.352536 20.1173 0.00458946 -0.530307 20.3379
0.00672962 -0.69698 20.8534 0.00646494 -0.278191 20.6829 0.00899263 -0.774473 20.8995 0.0101677
-0.750485 21.0532 0.0103143 -0.567908 21.1767 0.00887242 -0.205558 21.1531 0.00758403 -0.0961666
21.0889 0.00601462 -0.0599922 20.9946 0.00423055 -0.0454063 20.9867 0.00566899 -0.132308 21.0076
0.00365447 -0.0315006 20.9895 0.00280634 -0.0208043 20.9781 0.00219333 -0.0146864 20.9384 0.00201287
-0.00587178 20.9602 0.00291121 -0.0170325 20.9748 0.00151954 -0.00720715 20.9786 0.00128176 -0.00483093
20.9765 0.00127181 -0.00242686 20.9336 0.00133615 0.00560932 20.9348 0.00162371 -0.00156094 20.9786
0.00118012 0.00549295 20.9838 0.00104338 0.0123817 20.9829 0.00101763 0.0234079 20.929 0.000899489
0.0317203 20.9319 0.00109195 0.016061 20.9899 0.00104808 0.0640288 20.9988 0.00107714 0.0982647
20.9926 0.00101609 0.145107 20.9012 0.0007433 0.109081 20.9219 0.000800887 0.0595595 20.9648
0.000809013 0.283695 20.9408 0.000597366 0.376152 20.839 0.000636296 0.445475 20.7418 0.000708392
0.269703 20.849 0.000750873 0.183304 20.5874 0.000706236 0.518039 20.3473 0.00100905 0.402008
20.228 0.00127076 0.25812 20.0976 0.00200425 0.315726 20.121 0.00144666 0.11741 20.1393
0.00144931 0.00782415 20.147 0.00149789 -0.046846 20.1548 0.00142999 -0.0556178 20.159 0.00138494
-0.0508786 20 0 0 19.996 0.000204009 -0.00208477 19.9836 0.000489455 -0.00673596
19.9467 0.000884978 -0.0222122 19.836 0.00168073 -0.0723837 19.5235 0.00345617 -0.303167 19.7309
0.00324783 -0.364065 19.8716 0.00390929 -0.48342 19.6404 0.00446758 -0.617673 19.7724 0.00696572
-1.02449 19.8376 0.00863457 -1.23564 19.9768 0.00750186 -1.02905 19.9206 0.00590077 -0.812221
20.7878 0.023094 -1.96319 20.6703 0.0171275 -1.49613 20.6632 0.0217562 -1.93413 21.6786
0.0236142 -0.0387521 21.4915 0.0201127 0.0963049 21.3096 0.0162042 0.103674 21.2109 0.0117144
0.000823672 21.3884 0.0157448 -0.152902 20.9755 0.00388098 -0.0051101 20.9699 0.00251891 -0.0238335
20.9658 0.0019441 -0.032087 20.9316 0.00285145 -0.00145311 20.9482 0.00398192 0.00504338 20.9498
-0.00115434 -0.0619725 20.9501 -0.00184861 -0.0696133 20.9516 -0.00164098 -0.0641259 20.9204 0.000501041
-0.0134988 20.9183 0.000787512 -0.00992422 20.9749 -0.000722219 -0.0410479 20.9817 -0.000687227 -0.0433436
20.9865 -0.000131549 -0.0354548 20.9394 0.000605214 0.0056028 20.9333 0.000895007 -0.00445644 21.0448
0.000843126 0.0222603 21.063 0.00103048 0.0372089 21.0782 0.00110872 0.0670857 21.0028 0.000693344
0.110632 20.9798 0.00047221 0.0681178 21.2351 0.00131132 0.407405 21.2782 0.000898112 0.515471
21.2684 0.00179041 0.681386 21.0482 0.00125347 0.594452 21.0756 0.00115431 0.399496 20.6039
0.00271899 1.27604 20.4171 0.00252016 1.71753 19.9031 0.00179362 0.965495 20.2227 0.00182695
0.590292 20.5604 0.00114818 0.90832 19.8689 0.00236215 0.462677 17.9125 -0.00051722 0.848635
18.4198 -0.00240443 0.354807 18.6056 -0.00228496 0.194971 18.6964 -0.00189021 0.0991357 18.7578
-0.0018122 0.0626908 18.7885 -0.00225398 0.0540396 20 0 0 19.9952 0.00020599
1.60435e-06 19.98 0.000496115 -1.02231e-05 19.9324 0.000903867 -1.17051e-05 19.7772 0.00174809 -7.96029e-05
19.206 0.003749 8.43858e-05 19.2185 0.00392324 -0.223999 19.1596 0.00515346 -0.688938 19.2019
0.00508431 -0.682559 18.9755 0.00461676 -0.358298 18.7436 0.0106952 -2.01424 18.7858 0.00968419
-1.77992 18.4244 0.0102378 -2.09583 18.4212 0.0104351 -2.14517 19.1966 0.0353152 -5.91798
19.1369 0.0245827 -5.86639 18.3134 0.0262585 -5.55215 19.3457 0.0258486 -5.85379 11.1529
0.000245342 3.92835 4.75085 -0.00300627 3.16906 10.2511 -0.0136436 1.75162 17.2988 -0.000987787
1.73398 16.9774 -0.00333799 3.30008 12.4236 -0.0128552 1.06725 10.2532 -0.00694978 -0.152022
16.8948 -0.00176132 -0.0389259 17.2205 -0.00188032 -0.0372337 17.3842 -0.00170642 -0.0359091 17.5003
-0.00186057 -0.0355172 17.5624 -0.00242735 -0.0360256 20 0 0 19.996 0.000206667
0.00208587 19.9836 0.00049641 0.00672271 19.9468 0.000897958 0.0221462 19.8364 0.00170496 0.0721664
19.5254 0.0034454 0.302273 19.2209 0.0039069 0.223952 18.7524 0.0052292 0.484751 18.4226
0.00590369 0.533671 18.1501 0.00618335 0.427599 18.1797 0.00599007 0.00162709 9.91841 0.0160743
0.0450557 9.70156 0.0164087 0.866381 7.66135 0.0169302 1.09986 7.2503 0.017345 0.673037
7.44063 0.0181221 0.0587687 -6.51576 -1.59276 0.0457587 -6.16328 -1.64878 -0.735003 -3.25693
-0.91598 -0.0906794 -2.73511 -1.70374 0.241149 -3.11631 -1.99528 0.0229275 -0.318458 0.00822679
-2.64079 5.51116 0.0156538 -3.47744 10.8394 0.0100766 -1.99282 5.93034 -0.0070603 -0.210587
-0.841183 -0.00952585 -0.360154 12.9583 0.00822115 -1.26103 18.1136 0.00177862 -0.898031 18.5428
0.00125559 -0.401915 18.7341 0.00118509 -0.23972 18.8274 0.00123168 -0.142304 18.8934 0.00118232
-0.105619 18.9286 0.00106969 -0.0974577 19.9669 0.000878752 0.0274779 19.9887 0.000572235 0.0141513
19.9769 0.000869234 0.0301216 19.9201 0.00160844 0.0892766 19.9433 0.00158183 0.0940127 19.8873
0.00267685 0.278769 19.7319 0.00322872 0.362501 19.5338 0.00343655 0.304731 20 0
0 19.9979 0.000206062 0.00298907 19.992 0.000490635 0.00976371 19.5124 0.00350797 0.317629
19.0628 0.0124893 2.32448 19.3079 0.00906368 1.59682 19.3483 0.0113287 1.96423 19.1441
0.0123494 2.24846 19.2215 0.0553853 5.89336 19.2277 0.0537173 5.89885 19.3459 0.0589638
5.86803 19.351 0.0644227 5.88138 20.0418 -0.0107266 -2.55607 20.4159 -0.0020205 -1.742
19.9194 -0.00241924 -1.00055 17.5407 0.00209289 -1.78436 17.2298 -0.00546549 -3.37589 19.8836
-0.00197264 -0.505062 20.1019 -0.000309363 -0.338463 20.1249 -0.000414865 -0.128781 20.143 -0.000324442
-0.0178011 20.1502 -8.09982e-05 0.0365007 20.1567 0.00014912 0.0452958 20.1599 0.000197542 0.0407605
19.9963 0.000485309 0.00822733 19.9998 0.000320192 0.00417808 19.9998 0.000481089 0.00700995 20.0016
0.00083974 0.0202694 20.0123 0.00143879 0.0590792 20.0569 0.00231289 0.155591 19.9977 0.00247449
0.241743 20 0 0 19.9998 0.000204027 0.00213354 19.9201 0.00487398 0.807412
20.117 0.00394724 0.522359 20.3356 0.000372324 0.70414 20.3352 0.000462238 0.706317 19.9204
0.00487607 0.808682 20.6714 0.0129103 1.34322 20.7018 0.0278776 0.988771 20.937 0.0151514
0.920504 21.0208 0.0163288 1.23593 21.3958 0.0120609 0.161272 21.2599 0.00526008 0.196551
21.1683 0.0022385 0.0615407 21.219 0.00816073 0.00278052 20.9569 0.00243008 -0.00536397 20.9744
-0.00264847 0.015591 20.9553 -0.00339278 0.0128549 20.9403 0.00190206 0.000788711 20.9264 0.000510058
0.00955794 20.9402 -0.00515316 0.00730178 20.9415 -0.00559403 0.00758014 20.9281 0.000114986 0.0120452
20.9436 -9.68605e-05 0.00320011 20.9512 -0.00615041 0.00231746 20.9565 -0.00635602 -0.00556468 20.952
-0.000378446 -0.00668322 21.0001 -0.000648907 -0.0722973 20.9855 -0.00632853 -0.0654006 20.9995 -0.00639492
-0.106137 21.0264 -0.000646802 -0.116698 21.1002 -0.00093695 -0.432152 21.013 -0.00707161 -0.359706
20.9712 -0.00733443 -0.496723 21.0672 -0.00170956 -0.633985 20.2239 -0.000475423 -0.613064 20.5581
0.000403335 -0.929251 20.5886 -0.000204321 -0.529716 20.349 -1.67297e-05 -0.413273 20.2301 4.66553e-05
-0.270153 20.2958 0.000594407 -0.160641 20.2019 -0.000113659 -0.0783499 20.1793 -0.000191231 -0.0444571
20.1717 -0.000236837 -0.0267798 20.1674 -0.000319592 -0.0200109 20.1644 -0.000401467 -0.0185568 20.0014
0.000300306 4.8604e-16 20.0028 0.000475762 1.35375e-15 20.0107 0.000829592 -1.70511e-18 20.0336 0.0013693
1.35376e-15 20.1083 0.00225787 0 20.2756 0.00322026 0 20.2091 0.00355375 0.312507
20.094 0.00294629 0.246642 20.0001 3.12929e-05 -2.44228e-15 20.0006 0.00020255 2.59524e-18 20.2111
0.00356465 0.31368 20.2859 0.0032801 0 20.2936 0.00337118 0.143905 20.3011 0.00340675
0.145709 20.2127 0.00357567 0.314341 20.6237 0.00624875 0.406724 20.6164 0.00550311 0.284308
20.6599 0.00503231 0.174617 20.801 0.00541942 0.145896 20.8546 0.00651892 0.302928 20.9853
0.00571109 0.144157 20.9296 0.00496497 0.0767706 20.9638 0.00399316 0.0294138 20.9972 0.00442319
0.0499235 20.9661 0.00318455 0.0204612 20.952 0.0030747 0.0144356 20.9412 0.00224857 0.00856968
20.946 0.00229488 0.00937525 20.9427 0.00180971 0.00480879 20.9373 0.00164128 0.00549283 20.9353
0.00120968 0.00153681 20.9423 0.00139689 -0.0025521 20.9421 0.00107994 -0.0131552 20.932 0.0008699
-0.00451368 20.9255 0.000651584 -0.0144518 20.9411 0.000887553 -0.029705 20.9357 0.000813273 -0.0593392
20.9113 0.000552165 -0.0311789 20.8807 0.00045189 -0.0572745 20.9159 0.000739227 -0.111428 20.8623
0.000708726 -0.188549 20.8213 0.000363692 -0.0916278 20.7221 0.000382887 -0.129754 20.7524 0.00077861
-0.275784 20.3514 -9.63328e-05 -5.67385e-17 20.4087 0.00113062 -0.276524 20.5944 0.000879115 -0.318532
20.6152 0.000281708 -0.139675 20.5903 0.000304733 -7.42347e-15 20.2252 7.22179e-05 4.11538e-15 20.1948
0.000206308 5.46422e-15 20.1851 0.000276632 1.36731e-15 20.1738 0.000221273 -5.4629e-15 20.1644 0.000143504
0.0113175 20.6729 0.0154676 -1.33839 20.93 0.0246201 -1.99636 21.218 0.026569 -1.84225
21.013 0.0180376 -1.21907 21.466 0.0189036 -0.499138 21.9208 0.0294359 -0.575931 21.8763
0.0276751 -0.235911 19.3535 0.0380667 -5.86898 19.2208 0.0447161 -5.90741 20.9825 0.00563798
0.0198971 21.0003 0.0067179 0.0307582 20.985 0.00524955 0.0112952 20.9192 0.00142526 -0.00541541
20.9532 -0.000311005 -0.0536612 20.9517 -0.000918508 -0.0622326 20.9284 0.000990076 -0.0108818 20.9652
-0.000946437 -0.0506301 20.9704 -0.00105373 -0.0510784 20.9618 0.000453972 0.0393613 21.0202 0.00058234
-0.00645584 21.0343 0.000555146 0.00134345 21.058 0.00104101 0.265884 21.1762 0.0014066 0.239612
21.2137 0.00147076 0.30623 20.7954 0.00120049 0.992855 20.8629 0.00290955 1.30243 19.9862
-0.00116839 2.52329 20.4073 -0.00136164 2.71833 16.8834 -0.00290442 3.74457 18.7033 0.0116624
-2.2385 18.3956 0.0120151 -2.54058 19.0831 0.0404236 -5.96993 19.0457 0.0326281 -6.01179
7.22531 0.0184438 -0.561494 7.62611 0.0174654 -0.994441 9.67876 0.0159299 -0.780376 -6.20597
-0.995935 1.59159 -6.98937 -0.797882 3.59822 -11.4471 -0.647593 1.526 -11.4128 -1.34632
0.0979625 -2.81984 -0.954056 0.276682 -3.37255 -0.547488 1.89125 9.65085 0.0038139 4.08771
-0.943578 -0.0147606 2.03043 -5.29633 -0.01049 1.58733 -6.78926 -0.015499 -0.439919 18.4342
0.00969887 2.0852 18.7924 0.00905811 1.77078 18.7105 0.0107841 2.2244 18.4054 0.0112321
2.52454 19.1875 0.0552423 5.82734 19.0651 0.0475423 5.96796 19.0726 0.0545661 5.95454
-11.5106 -1.18097 -1.26905 -7.02095 -1.40391 -2.51329 19.2388 0.0789605 5.77963 -4.55634
0.0066408 -2.23509 11.7281 0.0112193 -4.08168 10.3184 0.0198531 -4.2984 17.1951 -0.00672994
-3.86816 21.2226 0.0268251 1.8494 20.9384 0.0220464 1.99702 20.6712 0.0147329 1.93031
21.6831 0.0239778 0.0451697 21.8802 0.0279948 0.24636 21.9227 0.0299568 0.589138 21.4718
0.0160288 0.512592 21.3138 0.0164801 -0.102598 21.4965 0.0204395 -0.0932527 20.9775 0.0069707
0.00332233 20.9868 0.0078758 -0.0127849 21.0025 0.00872499 -0.0324764 20.991 0.00332983 -0.0196769
20.9684 0.00604915 0.0293582 20.9725 0.00618228 0.0211702 20.9525 0.00349448 0.0606795 20.9542
0.00373103 0.0613252 20.9558 0.00429774 0.0537414 20.9278 0.00102618 0.00532529 20.9537 0.00267579
0.0639873 20.9529 0.00271111 0.069894 20.9783 0.00208127 0.0472455 20.9725 0.00137325 0.0595915
20.9661 0.00169847 0.058572 20.9371 8.94413e-05 0.00903795 20.9934 0.00203226 0.0388488 20.987
0.00162673 0.0493448 21.0609 0.00233919 -0.0226858 21.0483 0.00188917 -0.00211093 21.0324 0.0022375
0.0047991 20.9792 -0.00049897 -0.042369 21.0988 0.00256797 -0.0682571 21.0815 0.00208007 -0.0364846
21.2641 0.00327511 -0.446963 21.2453 0.00294119 -0.333767 21.2064 0.00320852 -0.258196 21.0855
-0.00060401 -0.286963 20.4755 -0.012685 -2.77035 21.2834 0.002982 -0.734274 21.3034 0.00331871
-0.562661 20.5971 0.00147752 -1.29889 20.8556 0.00164178 -1.3319 20.7933 0.00169392 -1.0201
20.2687 0.0163201 -1.71579 20.3623 0.0126488 -1.36788 18.7116 0.0118789 -2.2657 20.2633
0.0165332 -1.73563 19.2857 0.00866791 -1.43226 18.8068 0.0143461 -2.57504 19.1411 0.0139404
-2.26097 19.3463 0.0128065 -1.97562 19.1039 0.0478688 -5.91646 18.5588 0.00578665 -0.588539
18.8263 0.00569621 -0.739217 18.2573 0.00609058 -0.469342 18.9769 0.00678833 -1.10433 18.4857
0.007183 -1.20144 18.1884 0.00844337 -1.66917 18.0347 0.0102517 -2.31868 18.144 0.00620753
-0.424527 10.2783 0.0148024 -1.38153 13.1292 0.011919 -0.833707 13.0165 0.0120786 0.0225158
18.6707 0.028249 -3.9535 18.67 0.0284487 -3.96126 18.818 0.0271443 -3.60155 18.9477
0.0251092 -3.27355 18.907 0.0186454 -2.90741 18.6617 0.0204648 -3.52545 18.6642 0.0207965
-3.55059 17.4201 0.0131957 -3.58835 17.4995 0.0107731 -2.65668 16.5942 0.0113008 -3.0451
16.2277 0.0126039 -3.91702 16.2576 0.0143714 -4.83056 16.9551 0.0141994 -4.31418 17.3614
0.0137519 -3.83447 -3.24349 0.145029 -2.57587 -3.18622 0.150461 -3.86502 -5.22915 0.0739156
-3.64028 -5.88623 0.0508834 -2.3936 -6.24485 -0.245241 7.3267 -4.53327 -0.31963 8.00012
-4.04055 -0.302727 7.75543 -3.6936 -0.266189 7.28469 -5.01898 -0.105297 6.39897 12.7629
-0.0168158 0.976021 6.26906 -0.0375651 0.374588 8.18877 -0.0143377 2.09932 14.5577 -0.00242702
2.55159 -3.46474 0.0424332 1.281 -0.121805 0.0387174 1.82361 -1.54833 0.0280736 0.0278986
-4.88961 0.0421058 -0.652084 18.565 0.00575775 0.589108 13.139 0.0120169 0.787796 13.153
0.01201 0.875211 10.3227 0.0153081 1.44991 10.2569 0.0154246 1.38804 19.2054 0.00498576
0.680586 18.8318 0.00562822 0.737944 18.9818 0.00657883 1.09978 18.0479 0.00987386 2.30648
18.1992 0.00823821 1.66199 18.4936 0.00703473 1.19792 -9.40557 -0.241665 0.0247379 -9.16098
-0.386844 1.01146 -9.53833 -0.419468 1.58986 -11.9354 -0.614901 1.02255 -12.1094 -0.438835
0.0694453 19.2889 0.00802286 1.42431 18.8122 0.0129113 2.55893 19.837 0.00672207 1.22703
19.9761 0.00520378 1.02331 19.9191 0.00487987 0.808873 19.8348 0.00672536 1.2266 19.7717
0.00569358 1.0187 20.5498 0.0118366 1.32992 20.274 0.00726064 1.68451 20.3635 0.0101858
1.30957 18.9573 0.0560176 5.97307 19.0123 0.0395555 5.72031 19.2036 0.0486828 5.82848
19.8356 0.00673834 1.22915 20.265 0.00696954 1.7222 20.787 0.0349099 3.55507 20.9017
0.0304707 3.06603 20.8624 0.0362024 3.59845 22.0507 0.0446385 2.67635 22.0069 0.0405846
2.41082 22.3896 0.0443554 1.94619 22.9289 0.0698134 2.44979 22.674 0.0646123 2.91227
22.2923 0.0562724 3.19672 21.9673 0.0311539 -0.349597 21.5636 0.0217005 -0.425474 21.4709
0.0341978 -0.617974 21.7496 0.0461305 -0.701845 22.0976 0.0547398 -0.649428 20.904 0.000413413
-0.0577561 20.9078 0.0029372 -0.11495 20.9533 0.00605946 -0.205413 21.0953 0.00630343 -0.239071
21.0138 0.00252974 -0.139216 20.9504 0.000226528 0.0662516 20.953 0.000596895 0.0933268 20.8784
0.000981537 0.252603 20.8684 -0.000365838 0.260761 20.8806 -0.00137198 0.230593 20.871 0.00552718
0.264501 20.8639 0.0054179 0.280034 20.8768 0.00425335 0.26378 20.956 0.00126674 0.114818
20.9539 8.49642e-05 0.11511 20.9455 -0.00259367 0.129926 20.9458 -0.00270936 0.135925 20.7967
0.00715856 0.290505 20.7895 0.00827222 0.30298 20.8154 0.00703483 0.286181 20.738 0.0106157
0.291912 20.7259 0.0116264 0.306534 20.7583 0.00961209 0.290532 20.9477 -0.00355304 0.129558
20.9484 -0.0034838 0.123903 20.9612 -0.00288849 0.126564 20.9691 -0.00206752 0.128341 20.6768
0.0103824 0.280852 20.6496 0.012025 0.295815 20.6847 0.0111392 0.282391 20.6543 0.0124614
0.253968 20.6227 0.0140879 0.271658 20.662 0.0126214 0.263647 20.9871 -0.000628847 0.117841
20.9957 -0.000168277 0.108332 21.0519 0.000338115 0.0607475 21.076 0.000892873 0.0417656 20.6745
0.00925008 0.187436 20.6251 0.0107374 0.20854 20.6609 0.0105941 0.202925 20.7687 0.00489602
0.0879375 20.7003 0.00580527 0.124521 20.7259 0.00655429 0.130567 21.1388 0.00166696 -0.0188019
21.1791 0.0019446 -0.063247 13.3311 -0.0289897 -1.28031 19.5741 -0.0378978 -1.68538 19.8895
-0.0356252 -2.46004 15.1496 -0.0201789 -2.79934 21.4154 0.000298456 -0.411452 21.4835 -0.000417214
-0.580622 21.2696 -0.00614742 -0.469976 21.1765 -0.00578798 -0.325383 21.1254 -0.00383345 -0.261472
21.3509 -0.00788716 -1.72207 21.4323 -0.00831545 -1.33824 21.5871 -0.000963553 -1.17332 21.3855
-0.00175227 -1.48309 20.3594 0.0412755 -3.31809 20.8688 0.0502027 -3.60267 20.9206 0.0382379
-2.81411 20.5232 0.031997 -2.71915 22.3913 0.0549261 -1.9243 21.9605 0.0514773 -2.45556
22.3022 0.0625645 -3.17201 22.6801 0.0637363 -2.88207 22.9306 0.0637318 -2.41841 21.9556
0.0385397 0.35381 22.3498 0.0467158 0.0319491 22.7242 0.0500521 0.281872 22.4221 0.043471
0.560971 22.0827 0.03762 0.650076 23.1786 0.0633603 -1.98909 23.2419 0.0630557 -1.46212
22.6257 0.0554916 -1.25104 21.7362 0.0302465 0.697905 21.4599 0.025075 0.611758 21.5531
0.0297706 0.423376 21.009 0.0130363 0.133786 21.0898 0.0170553 0.233643 20.9511 0.00889846
0.200841 20.9064 0.00502318 0.11144 20.9023 0.00355343 0.0526791 20.946 0.00421227 -0.0670693
20.9466 0.00577059 -0.0304695 20.8839 -0.00474008 -0.187598 20.8749 -0.00643194 -0.226185 20.8814
-0.00576539 -0.232073 20.884 0.000107144 -0.0201072 20.8907 -0.000159937 -0.0569973 20.9708 0.00991907
0.0601792 20.8698 -0.00742472 -0.264302 20.8789 -0.00637372 -0.257882 20.9489 0.00307011 -0.0967613
20.9513 0.00103833 -0.123507 20.9533 0.00190242 -0.122263 20.8768 -0.00698168 -0.264905 20.8652
-0.00794634 -0.280122 20.8734 -0.00693288 -0.264768 20.9431 -0.000790316 -0.13626 20.9433 -0.000830499
-0.128967 20.8388 -0.00538078 -0.287941 20.8195 -0.00530204 -0.304547 20.8268 -0.00407979 -0.288064
20.8593 -0.00785041 -0.282244 20.8658 -0.00684439 -0.267008 20.9479 -4.34398e-05 -0.122245 20.8044
-0.00410338 -0.306166 20.8106 -0.00343029 -0.2958 20.9435 -0.000666038 -0.14161 20.9476 2.2668e-05
-0.130097 20.9469 -7.92289e-05 -0.137717 20.7767 -0.00278877 -0.292677 20.7462 -0.00339073 -0.306746
20.7552 -0.00349079 -0.290939 20.9599 0.000760017 -0.12054 20.9541 0.00016052 -0.120652 20.7078
-0.00813717 -0.281022 20.674 -0.0101945 -0.291783 20.699 -0.00980702 -0.270514 20.7223 -0.00491101
-0.306972 20.7374 -0.00502281 -0.287614 20.949 -0.000175498 -0.122993 20.6668 -0.0112972 -0.282151
20.691 -0.009883 -0.26763 20.9665 0.0018949 -0.122113 20.9885 0.00518977 -0.110264 20.9811