# vtk DataFile Version 2.0
sampleSurface
ASCII
DATASET POLYDATA
POINTS 7981 float
-594.999 0 -300 -700 0 -300 -700 0 -225 -594.998 0
-225 -489.997 -6.77626e-21 -300 -489.997 0 -224.999 -384.996 1.35525e-20 -300
-384.995 0 -224.999 -279.995 0 -300 -279.993 0 -224.998 -174.995
-2.71051e-20 -300 -174.993 0 -224.997 -69.9955 5.42101e-20 -300 -122.493 2.67332e-15
-224.996 -69.9938 0 -224.998 35.0032 0 -300 -17.494 8.04478e-17 -224.999
35.005 1.0842e-19 -225 35.0036 0 -262.5 87.5027 1.73798e-15 -300 87.5032
0 -262.5 140.003 1.16508e-15 -262.5 192.502 0 -262.499 192.502 4.39069e-15
-300 140.002 0 -300 245.001 -1.02663e-15 -262.499 297.501 0 -262.498
297.501 -9.74372e-16 -300 245.001 1.0842e-19 -300 350 -1.52374e-15 -262.498 402.5
1.0842e-19 -262.498 402.5 -1.22255e-15 -300 350 -1.0842e-19 -300 454.999 -4.20128e-16
-262.498 507.499 1.0842e-19 -262.498 507.498 -2.10064e-15 -300 454.999 0 -300
559.997 -2.85828e-15 -262.498 612.496 -1.0842e-19 -262.499 612.495 1.76096e-15 -300 559.997
-1.0842e-19 -300 664.993 -1.25529e-15 -262.499 717.49 0 -262.5 717.49 -3.43822e-15
-300 664.993 1.0842e-19 -300 874.978 0 -300 769.986 0 -300
769.986 -2.33331e-15 -262.5 769.981 0 -225 822.471 -1.86342e-15 -225.001 874.968
5.42101e-20 -225 979.975 0 -300 979.967 0 -225 1084.98 -2.71051e-20
-300 1084.97 2.71051e-20 -225 1189.98 0 -300 1189.98 0 -225
1294.99 -1.35525e-20 -300 1294.99 0 -225 1400 -2.34379e-15 -225 1400
1.35525e-20 -300 -700 0 -150 -594.998 -6.77626e-21 -150 -489.995 -6.77626e-21
-149.999 -384.992 -1.35525e-20 -149.998 -279.989 0 -149.996 -174.987 -5.47847e-16 -149.992
-174.991 -2.71051e-20 -187.495 -122.491 0 -187.495 -69.9921 -2.36329e-15 -187.496 -17.4925
-1.0842e-19 -187.498 87.5043 9.28402e-16 -225.002 35.0068 -1.89584e-15 -187.502 61.2492 1.59681e-15
-187.541 87.5056 0 -187.513 140.005 -2.00317e-15 -187.513 166.254 2.14629e-15 -187.573
192.503 -2.1684e-19 -187.508 192.502 0 -224.999 140.003 0 -225.001 245.001
-1.26223e-15 -187.505 271.251 -4.81169e-16 -187.566 297.501 0 -187.503 297.501 0
-224.996 245.001 0 -224.998 350 1.95915e-15 -187.502 376.25 5.41884e-16 -187.565
402.5 0 -187.502 402.5 0 -224.996 350 0 -224.996 455
4.35416e-16 -187.502 481.25 1.558e-15 -187.565 507.5 0 -187.503 507.499 -2.1684e-19
-224.996 454.999 2.1684e-19 -224.996 560 -1.05883e-15 -187.504 586.25 8.13368e-16 -187.567
612.5 0 -187.506 612.497 0 -224.998 559.998 0 -224.997 665
2.47415e-16 -187.508 691.256 1.87415e-15 -187.51 717.49 0 -187.501 717.489 0
-225 664.994 0 -224.999 769.975 2.13252e-15 -187.501 822.462 0 -187.501
874.957 -3.33067e-15 -187.501 874.936 0 -150.001 979.946 0 -150.001 1084.96
0 -150.001 1189.97 0 -150 1294.99 -1.35525e-20 -150 1400 2.44353e-15
-150 -700 0 -74.9999 -594.997 0 -74.9997 -489.994 0 -74.9993
-384.989 0 -74.998 -279.98 -2.71051e-20 -74.994 -174.966 -3.5831e-15 -74.9817 -175.042
0 -112.513 -122.487 2.71051e-20 -149.991 -122.538 0 -112.545 -70.0149 1.16226e-15
-131.274 -43.7389 0 -131.241 -43.7648 8.67362e-19 -150.038 -69.9896 -5.42101e-20 -149.992
41.1247 -2.1684e-19 -131.373 35.0001 -1.0842e-19 -145.091 34.9986 0 -131.322 140.008
-2.51535e-16 -131.469 153.13 -5.85469e-16 -131.461 166.257 4.33681e-19 -131.458 166.256 0
-150.154 140.007 0 -150.144 245.001 9.68409e-16 -131.437 258.126 4.30211e-16 -131.439
271.25 4.33681e-19 -131.445 271.251 -4.33681e-19 -150.14 245.001 0 -150.126 350
9.19837e-16 -131.436 363.125 3.62557e-16 -131.438 376.25 4.33681e-19 -131.444 376.25 0
-150.139 350 0 -150.124 455 6.72639e-16 -131.436 468.125 9.52797e-16 -131.438
481.25 0 -131.444 481.25 4.33681e-19 -150.139 455 0 -150.124 560
-1.56125e-16 -131.437 573.126 -3.95517e-16 -131.439 586.252 0 -131.446 586.251 0
-150.141 560 -4.33681e-19 -150.125 665.036 -2.27682e-16 -131.448 678.223 1.52222e-16 -131.436
691.391 2.1684e-19 -131.398 691.335 2.1684e-19 -150.098 665.025 0 -150.131 769.996
6.88035e-16 -131.291 770.003 1.66165e-15 -112.564 822.468 0 -112.496 822.443 -2.64719e-15
-150.002 769.976 0 -150.01 874.898 -2.05944e-15 -112.501 874.845 1.0842e-19 -75.0013
979.908 0 -75.0013 1084.95 0 -75.001 1189.97 0 -75.0007 1294.98
0 -75.0005 1400 9.93582e-15 -75.0004 -700 3.38813e-21 -5.72304e-05 -594.997 0
-7.6816e-05 -489.993 6.77626e-21 -0.000116721 -384.986 1.35525e-20 -0.000163077 -280.089 -8.67362e-19 0.0558625
-175.074 -5.25404e-16 0.00335334 -175.025 0 -37.5011 -122.562 -2.71051e-20 -72.9365 -122.561
0 -75.0498 -155.702 0 -37.5077 -63.3483 1.35525e-20 -75.0926 -70.0553 0
-75.0911 -70.0605 6.79409e-16 -65.7232 -68.6047 1.69407e-21 -65.7244 34.986 0 -75.0512
34.9795 -3.98986e-17 -73.8989 36.9971 -4.33681e-19 -73.5755 36.642 -8.67362e-19 -75.0089 769.928
-1.9095e-15 -56.2604 769.811 -5.16297e-16 -37.501 822.384 0 -37.5037 822.398 -2.1684e-19
-75.0054 769.919 2.1684e-19 -75.0268 874.877 1.27849e-15 -37.4969 874.75 0 -0.00319055
979.88 0 -0.00258442 1084.94 0 -0.00172148 1189.96 -2.71051e-20 -0.00107926 1294.98
2.71051e-20 -0.000692181 1400 -1.76817e-15 -0.000518079 -700 0 74.9998 -594.997 0
74.9996 -489.994 0 74.999 -385.121 0 75.0756 -280.13 0 75.0339
-175.132 6.25163e-16 75.065 -175.108 -1.35525e-20 37.5271 -137.624 0 37.543 -122.618
3.38813e-21 31.1048 -122.604 0 18.774 -122.595 -1.0842e-19 0.00160859 -70.0522 0
0.00137791 -70.0712 -1.59215e-16 2.34763 -66.7567 0 2.3453 -66.6893 2.71051e-20 1.16896
-66.6788 0 0.00102337 140.57 0 -0.000701733 140.61 1.59412e-16 4.68711 147.092
0 4.68742 147.089 8.47033e-22 2.3437 147.079 0 -0.000115042 769.672 8.57604e-17
18.7477 769.818 1.56364e-15 37.4984 822.375 0 37.5044 822.289 -1.0842e-19 -0.00139072
769.67 0 -0.00120793 874.872 1.34636e-15 37.4981 874.931 0 75.0096 979.906
-1.0842e-19 74.9957 1084.94 5.42101e-20 74.9976 1189.97 0 74.9987 1294.98 0
74.9992 1400 1.06882e-15 74.9994 -385.123 1.35525e-20 125.208 -467.393 0 150.013
-385.123 1.35525e-20 150.066 -280.139 0 133.803 -280.142 5.42101e-20 150.071 -175.117
0 150.111 -175.127 2.71051e-20 112.607 -175.132 8.47033e-21 76.5976 -700 0
150 -594.998 0 149.999 -489.995 0 149.999 -173 -8.47033e-22 75.0666
-43.8386 5.42101e-20 82.1741 -61.7019 4.33681e-19 93.8719 -43.8344 0 93.8496 -43.8397
0 84.47 34.9672 8.67362e-19 75.1266 34.9631 6.07153e-17 76.3154 36.5996 0
76.3272 36.5972 0 75.1603 769.851 1.94072e-16 93.7353 769.91 4.87891e-17 112.484
822.388 2.1684e-19 112.488 822.424 0 75.0203 769.938 0 75.0374 874.89
-1.51843e-15 112.491 874.931 0 149.992 979.943 -5.42101e-20 149.996 1084.96 0
149.998 1189.97 0 149.999 1294.99 1.35525e-20 149.999 1400 3.13531e-15 150
-490.027 -1.69407e-21 191.871 -550.997 0 225.02 -490.052 0 225.049 -385.109
0 225.056 -280.111 0 225.088 -175.063 0 225.071 -175.095 -1.04734e-15
187.6 -700 1.69407e-21 225 -594.998 0 225 -69.9883 1.35525e-20 149.988
-69.9918 1.15912e-15 187.493 -17.4927 -2.71051e-20 187.494 -17.4935 -2.71051e-20 187.264 -69.8343
0 149.989 34.9964 -8.67362e-19 150.059 34.9742 2.328e-15 168.92 61.2353 4.33681e-19
168.925 61.2356 0 150.177 140.007 -2.1684e-19 150.162 140.005 2.2031e-16 168.912
166.254 0 168.906 166.255 0 150.151 245.001 0 150.163 245.001
-8.48063e-16 168.916 271.251 2.1684e-19 168.914 271.251 0 150.173 350 4.33681e-19
150.176 350 -7.54822e-16 168.91 376.25 0 168.911 376.25 0 150.177
455 -4.33681e-19 150.176 455 1.86136e-15 168.909 481.25 2.1684e-19 168.911 481.25
-4.33681e-19 150.177 560 0 150.178 559.999 1.82363e-16 168.913 586.249 0
168.917 586.25 -2.1684e-19 150.182 665.03 0 150.193 665.023 9.37618e-16 168.922
691.243 2.1684e-19 168.722 691.248 2.1684e-19 149.967 822.435 -1.0842e-19 149.988 769.955
1.63931e-15 149.984 769.97 1.98474e-15 187.486 822.458 0 187.49 874.953 -1.11022e-15
187.492 874.965 0 224.995 979.965 -5.42101e-20 224.997 1084.97 0 224.999
1189.98 0 224.999 1294.99 1.35525e-20 225 1400 5.69857e-15 225 -557.446
-1.69407e-21 300 -490.046 0 300 -385.098 0 300 -280.093 4.33681e-19
300 -175.043 0 300 -76.1356 -9.48677e-20 300 -70.9141 1.35525e-20 224.996
-122.548 1.52656e-15 225.065 -700 7.74253e-15 300 -594.999 -3.38813e-21 300 -69.994
0 224.995 -69.9962 0 300 -69.9956 0 262.498 -66.9054 -1.35525e-20
262.501 -69.5321 1.35525e-20 224.996 34.987 -1.35525e-20 225.11 34.9914 0 245.756
48.6354 6.77626e-21 262.555 87.5011 -2.71051e-20 262.555 87.5003 0 225.111 140.003
0 225.108 140.002 4.23766e-15 262.554 192.502 1.0842e-19 262.552 192.502 -1.0842e-19
225.104 245.001 0 225.099 245.001 4.05719e-15 262.55 297.501 0 262.548
297.501 1.0842e-19 225.096 350 0 225.095 350 4.93019e-15 262.548 402.5
-1.0842e-19 262.547 402.5 0 225.094 454.999 0 225.095 454.999 3.44917e-15
262.547 507.498 -1.0842e-19 262.548 507.499 0 225.095 559.998 0 225.097
559.997 -2.99446e-15 262.549 612.495 -1.0842e-19 262.55 612.497 0 225.1 665.007
0 225.1 664.999 -1.53902e-15 262.55 717.488 0 262.493 717.486 0
224.987 874.976 5.42101e-20 300 822.468 -1.0842e-19 224.992 769.978 1.0842e-19 224.99
769.984 2.22619e-15 262.494 769.984 -5.42101e-20 300 979.974 0 300 1084.98
0 300 1189.98 0 300 1294.99 0 300 1400 0
300 35.0007 1.0842e-19 -150.05 48.1118 -4.33681e-19 -131.431 61.2412 0 -131.442
61.2454 -8.16187e-16 -150.132 113.757 1.61373e-15 -150.161 113.759 0 -131.483 126.884
0 -131.48 36.6261 0 -76.2272 34.9816 0 -76.238 218.752 -3.57353e-16
-150.144 218.752 0 -131.448 231.876 0 -131.44 323.75 1.03563e-15 -150.139
323.75 0 -131.444 336.875 0 -131.438 428.75 -4.93529e-16 -150.139 428.75
0 -131.444 441.875 0 -131.438 533.75 7.76722e-16 -150.139 533.75 -4.33681e-19
-131.444 546.875 0 -131.438 638.758 3.45644e-16 -150.146 638.763 0 -131.452
651.896 0 -131.45 743.79 2.27682e-16 -150.061 743.801 0 -131.328 769.993
1.11586e-15 -93.8109 743.802 -4.33681e-19 -93.8571 743.703 0 -75.0596 -56.9292 0
-75.094 -56.9379 0 -65.7339 33.3342 -4.51028e-17 -75.0811 33.3312 0 -73.9207
-66.6946 -1.14465e-16 -1.1662 -66.7666 0 -2.34209 -70.0751 2.71051e-20 -2.34396 140.61
-6.28085e-16 -4.68798 140.61 0 -9.376 127.471 0 -9.37901 127.406 0
-0.00361664 147.088 5.84165e-17 -2.34381 147.091 1.69407e-21 -4.68759 743.677 -2.1684e-19 -56.2792
769.679 -1.47712e-15 -18.7503 743.335 -1.0842e-19 -18.7499 743.292 0 -0.00040476 -70.0909
[...]
POINT_DATA 7981
FIELD attributes 1
p 1 7981 float
4.2577 4.26577 4.28055 4.28221 4.22194 4.28594 4.08926 4.26237 3.67287 4.09753 2.37852
3.21623 -0.919334 2.51332 0.409807 -8.02329 -2.76713 -8.31072 -8.89835 -12.7426 -13.0263
-16.4889 -17.11 -16.7361 -16.0204 -15.9692 -14.5705 -14.5834 -15.8249 -13.6958 -13.4244
-13.4435 -13.7457 -13.5356 -13.7551 -13.6548 -13.4984 -13.835 -13.5441 -13.3054 -13.6669
-12.6307 -10.8555 -10.5891 -12.3422 -3.16466 -8.14384 -8.76402 -8.58559 -4.8519 -2.21073
-0.109756 0.510435 0.753553 1.02377 0.685957 0.81437 0.365711 0.469062 0 0.0894248
4.31593 4.34078 4.44239 4.71844 5.34892 6.46836 4.42064 4.0368 2.30514 -1.80682
-14.1609 -9.06032 -14.182 -18.2291 -21.8047 -21.1826 -19.1006 -18.0241 -17.9154 -15.7883
-14.6561 -14.1591 -14.4651 -16.2021 -13.7659 -13.815 -13.8865 -13.3922 -13.5635 -14.1746
-14.3938 -14.5323 -14.0122 -13.6384 -14.9597 -15.2439 -15.3261 -14.2244 -14.2837 -15.197
-14.8477 -13.3699 -11.6647 -13.5008 -8.88146 -3.92191 -1.14864 1.89323 2.85723 1.8409
0.811462 0.218363 0 4.35109 4.39806 4.59961 5.22215 7.04294 12.996 9.62145
6.95873 11.5718 8.71895 7.28992 4.53964 5.85739 -13.7001 -10.4982 -10.8476 -34.7249
-30.0613 -24.9555 -23.9782 -28.9746 -13.1492 -13.3432 -13.6357 -13.3094 -13.6892 -14.9548
-15.0056 -15.0699 -14.9892 -14.617 -15.6958 -15.8194 -15.9201 -15.4653 -15.4659 -15.9768
-16.1026 -16.3261 -15.9513 -15.6074 -20.4873 -21.7557 -22.1508 -18.2271 -18.0681 -10.8128
-9.46336 3.64421 -1.62529 -9.20145 6.51764 15.0526 8.42052 4.8538 2.04997 0.512396
0 4.36571 4.42136 4.66445 5.44236 7.90553 18.699 18.1939 20.3705 19.6246
23.043 26.8285 26.6546 32.3774 32.3246 1.39481 0.328496 -2.57379 -1.50302 -9.62971
-4.5151 26.5473 14.7232 -6.64231 25.4301 26.6369 12.277 7.29781 3.39228 1.14276
0 4.35129 4.39834 4.59989 5.22083 7.03568 12.9548 18.1528 27.5004 34.0154
39.3244 39.2076 158.372 161.153 174.461 175.992 174.363 -27.4927 -24.1849 -1.88852
1.39892 -0.206074 -4.74118 -4.35465 26.4171 31.0115 2.05173 25.2445 14.9036 8.40763
4.7789 1.97614 0.464671 0 4.88572 4.50266 4.71956 5.71443 5.34869 6.47245
9.59838 12.8178 4.31631 4.34134 4.44307 13.2221 20.4637 18.145 16.5268 19.3567
1.56306 1.61804 -0.724701 -1.39339 -10.6804 -9.03274 3.73822 14.5672 -5.95417 6.54072
1.97232 2.85123 1.80231 0.772452 0.190602 0 4.35601 4.28475 4.28703 4.26761
4.10498 3.28737 4.46768 4.28099 4.2831 5.88618 2.35864 -1.99244 -1.98502 5.87854
-10.6703 -10.4368 -16.265 -18.996 -28.6511 -24.6448 -22.1237 -23.7272 -13.6854 -14.8114
-14.0494 -13.3458 -14.6684 -14.2329 -14.4423 -15.0217 -15.5725 -14.9296 -15.0409 -15.6254
-15.7657 -15.4187 -15.627 -16.0171 -17.9268 -16.2517 -15.9017 -18.0459 -1.45537 -8.92542
-8.76754 -3.8239 -1.06952 -2.17046 0.559341 1.06743 0.848373 0.490893 0 4.24606
4.22324 4.09669 3.68187 2.46467 -0.77494 0.459922 2.61652 4.26619 4.25877 0.421492
-0.976035 -1.13546 -1.30005 0.389183 -8.61712 -8.46361 -9.51493 -12.8664 -14.2015 -17.5361
-15.9155 -16.5946 -17.6359 -16.0089 -15.7086 -14.5347 -14.4559 -13.651 -13.7782 -13.5401
-13.4938 -13.7077 -13.641 -13.8409 -14.0512 -14.325 -13.916 -13.6227 -14.2815 -13.5512
-12.6856 -10.8769 -11.6779 -3.14281 -4.82118 -8.56742 -8.76593 -8.15441 -0.0644698 0.812621
0.739463 0.404935 0.103093 -10.3724 -16.9537 -23.5091 -18.7291 -30.525 -40.0041 -39.2537
-0.782189 1.86201 -15.3457 -13.8461 -13.1169 -14.1354 -14.7688 -14.9433 -15.4319 -15.5368
-15.5925 -15.4561 -15.9218 -15.9515 -17.3155 -18.6153 -19.6302 -14.1835 -16.298 -11.3127
-25.8924 -34.0458 26.9949 31.9014 3.91952 2.63203 174.646 171.815 158.463 -23.7075
-34.1623 -79.0988 -74.3437 2.00613 -1.50582 -42.3828 -4.64559 -36.4727 -32.5683 32.1763
26.5015 26.8374 31.7016 0.775228 2.58824 3.92517 -79.8026 -34.6429 -1.01993 -36.7271
-9.00563 -41.6302 -32.7408 -23.7435 -17.3348 -11.2025 -34.3801 -38.8828 -39.6847 -30.2294
-24.7143 -29.7643 -13.269 -13.2017 -13.8728 -15.2716 -13.6997 -13.487 -14.9733 -14.9122
-14.7229 -14.1952 -15.2133 -15.0887 -15.7544 -15.6825 -15.6496 -15.5105 -15.9281 -15.8436
-16.1181 -16.0828 -16.038 -15.6711 -16.4889 -16.2583 -20.5073 -19.7209 -18.7311 -17.2251
-24.8421 -22.0068 -21.7162 -10.4143 -15.859 -13.886 -2.36795 -3.48751 26.7531 -2.30411
19.0044 24.0029 19.4634 16.6193 4.24906 31.3563 26.2501 37.2112 24.0739 32.761
38.2401 40.2301 39.4125 151.142 122.194 125.321 20.8493 20.8479 18.8437 17.4806
20.4395 22.6406 22.4674 47.8741 49.9539 63.0515 65.7983 61.6576 52.7982 47.9378
-131.408 -119.084 -116.837 -128.288 -106.313 -97.4162 -101.915 -105.828 -116.004 -71.8489
-85.8081 -77.1991 -63.0666 -82.7329 -89.2168 -95.97 -90.7748 31.2408 122.97 122.701
153.6 154.401 19.539 26.1304 23.9528 39.9684 38.0163 32.5921 -69.8685 -69.9894
-74.9014 -92.9978 -91.8309 18.9048 23.8771 7.26342 4.58846 5.90576 7.30869 8.7158
-7.94621 -2.55661 -3.7746 6.40006 6.52483 2.33055 7.29137 -2.43415 -17.8216 -19.0591
-19.58 -44.7859 -43.1186 -51.3855 -65.0236 -59.9872 -51.8454 -42.0244 -31.4196 -30.619
-38.1731 -46.6389 -9.8591 -10.1384 -12.2379 -16.3823 -12.8107 -13.6352 -14.6289 -14.5225
-14.2258 -13.8291 -15.9815 -15.8356 -15.6704 -15.642 -15.6789 -15.0794 -14.8323 -14.4783
-14.7911 -15.1003 -13.9349 -13.8705 -13.8819 -14.5205 -14.539 -15.2659 -15.6848 -15.9905
-15.7462 -15.4668 -17.0171 -16.9447 -16.8136 -16.4466 -16.6669 -16.9999 -17.1359 -17.3305
-17.2563 -17.2127 -18.7568 -18.3728 -18.0487 -17.8039 -18.4363 -70.3579 -55.7587 -50.5376
-61.1827 -23.9763 -26.2128 -29.927 -27.8798 -25.9319 -33.0355 -34.6441 -29.6935 -27.5253
-7.56881 -19.3868 -18.5939 -9.53432 -51.5325 -42.0158 -51.8405 -60.043 -65.1647 -42.4563
-51.9014 -63.0332 -56.2775 -47.1874 -71.0001 -72.6906 -57.0073 -38.5636 -30.8432 -31.6954
-12.9204 -16.5402 -12.3548 -10.2837 -10.0116 -13.3843 -12.3939 -12.5477 -13.1829 -13.6132
-9.848 -10.3277 -11.481 -13.9607 -14.2617 -14.3485 -15.8295 -15.6245 -15.5166 -15.7128
-15.9269 -15.139 -15.4465 -15.7091 -15.5188 -15.3132 -16.0843 -16.1639 -15.895 -15.0818
-14.7058 -14.7446 -14.2358 -14.2414 -13.752 -13.658 -13.654 -15.1841 -14.778 -14.7411
-15.0422 -15.3121 -13.6256 -13.7709 -14.2735 -15.6233 -15.892 -15.6759 -16.6629 -16.4639
-16.7193 -16.8318 -16.8873 -16.8857 -16.8512 -17.107 -17.128 -17.1891 -16.9477 -17.0022
-16.7836 -17.2682 -17.3428 -16.9774 -18.184 -17.5843 -17.9961 -18.2857 -18.6092 -23.7114
-21.7198 -22.7214 -23.9725 -25.4008 -19.0201 -19.5212 -19.0229 -27.3909 -29.6476 -26.1036
-52.4046 -57.2567 -30.0627 -35.1519 -33.7697 -28.1045 20.8812 47.4354 17.4581 18.8518
17.3737 -93.1431 -92.9108 -99.505 19.2778 72.9011 74.7577 -128.528 -119.503 -138.961
-142.047 -91.213 -72.45 -68.107 -103.243 -96.5328 -120.301 62.548 65.1923 74.0237
72.2723 48.1808 62.4267 49.6008 17.4245 18.8008 20.8206 20.8535 22.5704 20.3584
17.2986 19.2078 -118.557 -130.108 -122.247 -94.4685 -97.9609 -104.689 -133.096 -120.735
-137.874 -135.616 47.0959 52.379 61.0865 -107.475 -120.617 -129.505 -116.928 -140.806
-143.751 -106.838 -103.153 -98.7473 -75.7913 -84.767 -91.2886 -95.719 -88.9477 -83.0172
-7.77665 -9.75361 -18.8129 -42.0208 -55.6174 -62.3544 -51.4028 -56.7065 -72.3009 -70.7438
-13.3547 -12.6867 -12.5764 -11.4741 -10.3003 -9.74084 -15.3606 -15.5503 -15.282 -15.6679
-16.086 -16.0757 -15.2444 -14.9854 -14.9417 -14.5535 -14.1263 -13.9676 -17.1715 -17.1713
-16.9227 -16.8062 -17.1317 -17.0975 -24.5335 -23.2293 -22.0496 -19.3156 -19.7909 -19.2227
-148.578 -144.723 -148.658 -152.29 -64.2525 -64.6269 -69.1808 -78.9364 -72.0947 -94.7843
-88.0781 -90.028 -92.397 -97.8755 -92.3143 -86.1166 -94.2032 -63.341 -67.7008 -64.4488
-60.416 -78.9603 -83.9011 -4.56804 -10.4323 -9.45599 -2.40085 -45.891 -38.3637 -31.091
-29.8599 -42.2345 -49.1636 -35.844 -31.9706 -39.4311 -48.4023 -5.64914 -8.0635 -12.0241
-17.2087 -11.1149 -14.0565 -13.4994 -12.5865 -13.0308 -13.5608 -12.4685 -12.136 -11.9776
-12.9226 -13.1676 -15.3173 -14.6356 -14.5225 -14.8539 -15.2708 -13.3076 -13.4071 -13.5584
-13.6747 -13.4111 -15.9198 -16.0768 -15.9477 -15.8771 -15.8364 -16.4081 -16.3513 -16.2752
-16.4137 -16.5451 -17.0372 -17.1201 -17.1348 -17.0852 -17.0561 -17.7181 -17.6021 -17.4788
-17.4179 -17.6339 -60.238 -58.3106 -57.3546 -62.3136 -71.0987 -27.6756 -30.305 -30.6046
-28.9853 -27.8715 -47.4052 -43.9179 -39.5033 -42.3087 -4.16666 -9.19276 -10.1986 -7.02979
-30.9879 -31.0885 -38.471 -43.354 -2.17282 -4.34257 -42.2549 -29.7968 -46.0871 -49.8867
-64.1757 -67.7986 -58.6539 -49.3028 -106.175 -103.523 -97.9327 -87.3384 -93.6524 -40.1822
-32.5495 -36.3191 -11.0563 -17.185 -11.7729 -7.90906 -5.63714 -13.8864 -14.1155 -14.0983
-13.8152 -13.3148 -13.3978 -13.7514 -14.0718 -13.6462 -13.0973 -12.6687 -12.2426 -13.2498
-13.038 -12.8047 -11.8182 -11.9797 -12.2795 -15.902 -16.4425 -16.5925 -16.2931 -15.9186
-17.3691 -17.3746 -17.3173 -16.9726 -16.9864 -15.5092 -15.1609 -15.2372 -13.5947 -14.0498
-13.8837 -13.6 -13.381 -15.7857 -15.5086 -15.5556 -15.6522 -15.7537 -14.56 -14.7624
-14.9361 -14.8005 -14.3974 -15.8394 -15.9441 -16.0156 -16.523 -16.3963 -16.316 -16.3796
-16.4169 -17.1147 -17.0313 -17.0991 -17.1203 -17.1437 -16.8394 -16.8804 -16.9135 -16.9043
-16.8427 -17.1855 -17.2551 -17.2361 -17.7498 -17.5545 -17.635 -17.7527 -17.8456 -26.6918
-24.8753 -24.9988 -25.6912 -26.6313 -21.7228 -22.1827 -22.655 -22.404 -21.4664 -27.8824
-29.9216 -29.5223 -62.6064 -57.3573 -60.9805 -39.5437 -44.0277 -47.8658 -42.6635 20.877
20.7817 19.2142 19.1174 -155.39 -153.005 -162.737 -163.439 -162.821 -162.118 -92.9604
-84.8079 -90.9399 -63.2938 -65.3797 -82.4267 -78.0559 18.9836 19.1083 20.7405 20.7587
-148.453 -152.814 -155.374 -152.242 -163.313 -164.337 -165.061 -164.068 -148.743 -144.757
-77.9926 -67.7566 -60.8425 -93.3119 -91.1132 -88.9778 -94.7265 -97.7936 -57.5976 -66.7214
-63.3082 -92.8459 -86.4165 -96.9227 -102.587 -105.354 -13.9326 -14.0618 -14.161 -12.912
-13.4794 -13.4849 -13.1383 -12.8932 -15.6608 -16.0108 -15.9293 -16.8174 -16.6523 -16.9653
-17.108 -17.2042 -15.7852 -15.7424 -15.7417 -14.919 -15.236 -15.3076 -15.181 -15.0365
-17.0409 -17.0266 -16.9872 -16.9069 -16.9289 -16.9075 -16.8964 -16.8823 -26.9453 -26.1687
-25.8227 -22.0463 -23.115 -23.4674 -22.9068 -22.3646 -1.37931 -5.3271 -3.08224 16.072
18.0749 -0.845517 15.2553 12.9379 14.9008 8.56067 6.32945 4.14271 6.79633 27.2994
25.6109 27.5022 29.6449 32.0391 33.3422 29.6605 28.1052 -134.894 -133.085 -128.811
-130.408 -132.317 -136.769 35.2379 33.4748 41.9907 41.5159 17.5174 16.7285 -3.26375
-1.01788 14.8262 12.8689 15.2046 17.9844 6.73745 4.06232 6.23689 8.48368 -96.9685
-93.3921 -87.7679 -76.7821 -85.0432 -54.7492 -61.4731 -54.0823 -7.40301 -6.20368 -4.97792
-5.88758 -7.44547 -7.0124 -2.66787 -3.19198 -16.1884 -15.8255 -15.3471 -15.1264 -15.8024
-13.698 -13.3258 -12.831 -13.686 -13.5745 -13.4881 -13.497 -13.6791 -13.3263 -13.2439
-13.2348 -16.6431 -16.6509 -16.6412 -16.7534 -16.7622 -16.646 -16.4896 -16.4391 -19.2349
-18.9989 -18.7613 -18.6166 -19.0703 -17.8974 -17.9849 -17.8396 -84.9865 -76.6213 -87.3726
-93.0508 -96.7765 -54.2458 -61.4857 -54.7378 -101.365 -103.869 -91.2912 -96.1067 -109.291
-109.213 -7.37346 -5.84872 -4.56153 -5.55137 -6.70412 -3.34627 -2.86206 -6.98997 -7.78565
-8.87827 -9.3377 -12.2922 -12.3091 -12.9039 -15.3015 -14.6129 -14.7991 -15.2697 -15.6402
-12.5705 -12.9845 -13.4389 -16.0751 -16.3987 -16.0053 -16.8594 -17.2721 -17.3568 -13.0872
-13.0292 -12.8778 -12.8945 -13.0009 -13.1748 -13.0667 -13.2811 -13.1384 -13.3116 -13.3105
-14.0022 -14.1524 -14.3733 -16.6151 -16.6443 -16.5131 -16.4855 -16.4626 -16.4326 -16.4714
-16.6071 -16.4277 -16.4576 -16.6323 -16.7744 -16.7217 -16.8008 -18.9161 -18.559 -18.7032
-18.888 -19.0635 -17.9489 -18.0756 -17.9785 -19.2585 -19.5039 -19.3672 -20.6508 -20.8734
-21.3007 41.5717 35.1352 35.3339 39.6278 19.1641 18.9833 19.2847 22.2863 22.6813
22.8234 20.8849 41.862 33.1689 -76.7575 -78.6505 -73.983 -71.4351 -89.4257 -95.2352
-88.7937 -81.0259 29.101 26.386 25.0035 31.5404 -139.892 -138.056 -161.361 -161.956
27.1864 28.788 25.9323 25.4328 20.7644 21.9755 21.7856 18.7358 19.0366 29.033
24.9335 26.3139 31.1979 -80.0524 -77.8534 -71.951 -74.8903 -90.7147 -82.5985 -90.2198
-96.5486 39.5085 35.323 29.5188 27.2103 31.9085 28.0349 29.6248 33.2221 31.5785
-131.72 -130.386 -134.95 -136.286 -137.955 -133.541 -139.778 -141.098 -162.931 -162.229
-91.1454 -103.797 -101.433 -108.555 -108.778 -95.4977 -9.3836 -9.45649 -8.54717 -12.5226
-12.1065 -12.1599 -16.3677 -16.8357 -16.5892 -17.2961 -17.3083 -16.85 -13.9431 -13.9699
-13.8175 -14.8952 -14.7127 -14.5888 -16.7885 -16.6374 -16.6201 -16.8683 -16.8171 -16.876
-19.6184 -19.7887 -19.4907 -21.8717 -21.379 -21.1101 -0.318224 -3.9084 -3.25552 0.498319
-19.5067 -13.1491 -12.9324 -18.789 -45.4456 -39.9879 -38.9936 -44.3432 -12.8985 -15.0179
-16.2942 -14.1883 -13.2684 -12.7514 -12.6425 -13.2012 -11.6658 -11.8369 -11.9465 -11.7798
-15.0671 -14.746 -14.7863 -15.0948 -14.1401 -14.3217 -14.2416 -14.0402 -15.7425 -15.7768
-15.7362 -15.7082 -16.0798 -15.9292 -15.9629 -16.0972 -17.0599 -17.071 -17.0489 -17.0422
-17.2794 -17.1657 -17.1851 -17.286 -46.0859 -45.0209 -45.9836 -47.6239 -27.2269 -27.8176
-25.9402 -26.2685 -26.5581 -56.5872 -56.5531 -40.7669 -37.6614 -46.3097 -3.20899 -3.20308
-3.43039 -19.4852 -18.6844 -12.6584 -12.9372 1.05069 -2.814 -0.02252 -46.5528 -52.0069
-51.1446 -45.4844 -88.4921 -83.6954 -83.9224 -88.6621 -39.9731 -40.9567 -13.9396 -16.4026
-15.1093 -12.5476 -12.9429 -13.6588 -13.8691 -13.044 -14.9013 -14.948 -14.5531 -14.5462
-12.2748 -12.2486 -11.318 -11.4224 -11.3741 -11.2226 -15.6802 -15.9582 -15.9668 -15.7063
-16.5742 -16.4373 -16.4466 -16.6227 -15.4221 -15.3825 -14.4911 -14.7895 -14.86 -14.5707
-15.557 -15.4795 -15.406 -15.4809 -15.2121 -15.3408 -15.3976 -15.2704 -15.5613 -15.6353
-16.0706 -15.9152 -15.8632 -16.0364 -17.1548 -17.1543 -17.1265 -17.1282 -17.121 -17.1755
-17.1962 -17.1367 -17.1341 -17.1628 -17.4301 -17.3168 -17.2928 -17.415 -25.8197 -25.3282
-25.0594 -25.1359 -23.9768 -24.4489 -24.4509 -23.9344 -25.1872 -26.8474 -60.4896 -59.4928
-57.8917 -59.2811 -38.6208 -48.1492 -58.5079 -55.9248 -46.2082 16.8169 15.6714 13.9986
13.9588 13.7953 13.7172 15.9435 -131.387 -112.136 -82.6554 -100.308 -100.419 -116.437
-126.057 -108.197 -144.533 -134.72 -124.125 15.844 13.3786 13.3623 13.8993 15.5633
16.734 -110.152 -127.603 -117.643 -101.201 -83.7681 -113.371 -132.696 -146.374 -136.493
-49.866 -50.7618 -87.4536 -82.6858 -82.3776 -87.1908 -13.7178 -13.7097 -13.6985 -13.946
-14.1749 -13.998 -15.4067 -15.3926 -16.2812 -16.0313 -16.0467 -16.2703 -15.6819 -15.7125
-15.5811 -15.6881 -15.6724 -15.5645 -17.0328 -17.0532 -17.0287 -17.0751 -17.0599 -17.0165
-26.6256 -26.6384 -26.7901 -25.1188 -25.7727 -25.9443 -25.2835 0.613846 2.92084 15.9469
18.7079 16.4182 14.7963 9.07701 8.19169 5.73032 6.85492 42.3733 41.1612 44.8987
47.2605 -139.42 -128.781 -139.458 40.3764 38.5767 28.2393 30.9912 15.7957 14.6243
16.2567 18.5977 2.68257 0.381061 6.72604 5.56646 8.02337 8.94019 -112.617 -110.757
-108.178 -109.7 -89.4205 -93.2386 -96.5172 -93.5056 -7.73765 -6.89065 -6.98636 -7.98439
-2.85654 -4.34566 -4.56413 -3.05743 -16.2784 -16.053 -16.1415 -16.4125 -14.9287 -15.4002
-15.4106 -14.9687 -13.7482 -13.7178 -13.6965 -13.7513 -13.5396 -13.5947 -13.6494 -13.5969
-16.6527 -16.6776 -16.7141 -16.692 -16.6575 -16.6993 -16.6846 -16.643 -19.3663 -19.1125
-19.0877 -19.339 -18.4206 -18.6333 -18.6714 -18.454 -109.215 -107.616 -110.054 -111.985
-92.751 -95.8135 -92.5862 -88.8884 -113.718 -111.423 -118.61 -118.301 -119.49 -119.976
-6.94904 -6.21536 -6.4064 -6.94862 -3.21641 -4.64228 -4.31885 -3.14733 -7.27946 -7.47647
-9.34757 -8.69081 -8.09545 -8.61222 -16.2485 -15.9803 -16.0551 -16.2812 -14.776 -15.2971
-15.1713 -14.6569 -16.43 -16.4578 -16.9528 -16.8427 -16.7398 -16.8282 -13.1014 -13.0168
-13.0178 -13.0844 -13.0514 -13.02 -12.9932 -13.0214 -13.1876 -13.2229 -13.891 -13.6463
-13.6157 -13.8719 -16.4994 -16.538 -16.5109 -16.4714 -16.5755 -16.5824 -16.5904 -16.5836
-16.4058 -16.4329 -16.6244 -16.5216 -16.4963 -16.6066 -19.1716 -18.9796 -18.9924 -19.1922
-18.4892 -18.658 -18.63 -18.4637 -19.3952 -19.3679 -20.2837 -19.9339 -19.9818 -20.3421
30.8657 41.1723 40.0945 33.1219 31.2598 29.5569 31.2348 34.2509 27.5783 37.9256
-72.0956 -67.778 -54.3485 -53.2835 -50.4499 -51.1663 43.4774 27.4666 36.9852 -155.552
-148.345 -146.951 -143.165 -150.45 -154.065 -162.936 -164.307 -164.191 -141.627 -153.195
-148.907 -161.122 -161.154 -72.7357 -67.8389 -50.1651 -51.3111 -44.3185 -44.3658 32.8531
39.0046 46.1059 44.5402 41.2516 42.8414 29.0234 30.7874 33.7429 30.6468 44.2334
-139.586 -148.379 -155.495 -155.715 -151.941 -144.702 -148.645 -166.011 -166.236 -164.59
-150.706 -154.9 -142.517 -162.507 -161.945 -139.736 -129.387 -111.847 -114.294 -119.913
-119.497 -118.221 -118.482 -8.63601 -8.27859 -9.2761 -8.98229 -9.53014 -9.88097 -16.654
-16.4859 -17.0203 -16.9217 -17.0757 -17.1591 -13.8159 -13.7877 -14.4119 -14.1627 -14.1853
-14.4163 -16.6331 -16.594 -16.7155 -16.6408 -16.6765 -16.7428 -19.6044 -19.6335 -20.7616
-20.3437 -20.2911 -20.6948 -124.638 -139.037 -139.204 -128.646 -60.4119 -54.5155 -48.3583
-42.4933 -52.8409 -25.3565 -26.9992 1.61715 -0.506806 -2.66146 -0.269929 -12.03 -11.1678
-12.6082 -12.1677 -12.2404 -12.6498 -11.7711 -11.652 -13.5122 -13.6358 -13.5544 -13.4487
-13.8325 -13.9286 -16.4057 -16.3487 -16.369 -16.4287 -16.1863 -16.1776 -17.7259 -17.5981
-17.6047 -17.7305 -17.3757 -17.374 -52.0038 -43.165 -49.2178 -52.7621 -25.4557 -27.2874
-53.7171 -56.0471 -61.4965 -114.852 -112.734 -112.325 -114.238 -93.1871 -93.0511 -0.220798
-2.19093 -0.123126 1.86854 -10.4447 -11.4197 -11.6797 -12.6656 -12.9286 -12.1889 -14.2095
-14.425 -12.35 -11.9045 -11.7795 -12.2555 -11.2333 -11.3625 -16.7296 -16.6802 -16.8526
-16.9049 -16.7297 -16.6088 -13.3895 -13.6264 -13.6762 -13.4177 -14.2623 -14.1878 -14.6484
-14.7581 -14.8037 -14.6751 -15.0757 -15.0003 -16.3925 -16.3589 -16.3319 -16.3641 -16.1569
-16.1786 -16.9429 -16.96 -16.9769 -16.9559 -17.0338 -17.006 -17.8683 -17.7652 -17.7474
-17.8545 -17.5192 -17.5291 -21.9942 -22.4439 -22.3852 -21.9316 -23.3769 -23.4212 17.6054
18.7139 17.7021 23.6165 24.083 24.5853 25.2118 24.8359 22.2773 -166.176 -165.395
-165.648 -166.354 -166.628 -166.797 17.7657 18.7306 17.4968 25.2278 24.5799 24.1908
23.9759 22.3344 24.992 -167.467 -166.55 -166.298 -167.299 -168.136 -167.948 -131.331
-141.451 -141.745 -127.747 -113.506 -111.52 -111.854 -114.033 -91.8017 -91.995 -11.5535
-12.0851 -12.0744 -11.32 -13.5421 -13.2613 -16.861 -16.713 -16.5915 -16.7349 -16.359
-16.4378 -15.1112 -15.1943 -15.1845 -15.1185 -15.3727 -15.4075 -16.9365 -16.9323 -16.9062
-16.9134 -16.9241 -16.9533 -22.6035 -23.1498 -23.232 -22.6871 -24.4959 -24.4028 -69.7397
-62.7304 -65.7914 -70.3667 -80.5419 -76.7329 -73.5991 -66.3497 -82.9676 -80.9034 -63.1776
-71.9528 -67.276 -90.1317 -86.1648 0.578939 1.89006 -1.19975 -1.2904 -13.1703 -13.1677
-14.4134 -14.3775 -13.3693 -13.4173 -13.488 -13.4475 -16.4501 -16.4317 -16.5486 -16.5722
-17.8582 -17.8621 -18.222 -18.205 -67.7365 -72.4008 -68.345 -63.6235 -85.9139 -89.5976
-116.093 -116.629 -120.231 -119.182 1.93133 0.221066 -1.80028 -1.37293 -11.4051 -10.7406
-9.11046 -9.89616 -12.86 -12.8861 -14.0814 -14.1623 -16.9571 -16.7863 -16.8412 -16.9918
-13.2325 -13.2139 -13.0499 -13.0667 -14.5158 -14.4988 -14.097 -14.109 -16.3766 -16.3994
-16.5119 -16.491 -16.8998 -16.8826 -16.6955 -16.7074 -17.9648 -17.9684 -18.2753 -18.2845
-21.4878 -21.5462 -20.7129 -20.6518 31.8479 31.3552 32.417 25.6155 24.4854 26.4673
27.0401 -108.422 -107.191 -104.162 -104.92 -110.392 -111.107 -105.487 -105.1 25.678
25.954 33.6965 32.4179 33.5677 40.6003 39.0718 33.0781 32.9031 34.1207 -155.154
-155.877 -156.668 -156.154 -155.386 -154.167 32.9309 33.2832 32.1196 30.9712 24.3031
25.4126 26.9883 26.3238 33.9611 33.2733 33.107 -70.6604 -78.1854 -82.1014 -71.8462
-69.208 -74.8597 -67.052 -136.664 -137.057 -136.37 -129.475 -130.532 -109.596 -108.918
-111.931 -112.959 -111.898 -112.693 -117.839 -117.259 -84.7104 -82.5132 -106.094 -106.364
-107.108 25.903 25.4508 40.2874 41.876 -71.2759 -66.0488 -62.641 -138.003 -155.711
-156.257 -155.493 -154.688 -154.424 -155.425 -115.889 -115.426 -119.037 -120.127 -10.6768
-11.0757 -10.1505 -9.56185 -16.8671 -16.9939 -17.1459 -17.0109 -15.003 -14.9896 -14.6155