# vtk DataFile Version 2.0
sampleSurface
ASCII
DATASET POLYDATA
POINTS 7981 float
-594.999 0 -300 -700 0 -300 -700 0 -225 -594.998 0
-225 -489.997 -6.77626e-21 -300 -489.997 0 -224.999 -384.996 1.35525e-20 -300
-384.995 0 -224.999 -279.995 0 -300 -279.993 0 -224.998 -174.995
-2.71051e-20 -300 -174.993 0 -224.997 -69.9955 5.42101e-20 -300 -122.493 2.67332e-15
-224.996 -69.9938 0 -224.998 35.0032 0 -300 -17.494 8.04478e-17 -224.999
35.005 1.0842e-19 -225 35.0036 0 -262.5 87.5027 1.73798e-15 -300 87.5032
0 -262.5 140.003 1.16508e-15 -262.5 192.502 0 -262.499 192.502 4.39069e-15
-300 140.002 0 -300 245.001 -1.02663e-15 -262.499 297.501 0 -262.498
297.501 -9.74372e-16 -300 245.001 1.0842e-19 -300 350 -1.52374e-15 -262.498 402.5
1.0842e-19 -262.498 402.5 -1.22255e-15 -300 350 -1.0842e-19 -300 454.999 -4.20128e-16
-262.498 507.499 1.0842e-19 -262.498 507.498 -2.10064e-15 -300 454.999 0 -300
559.997 -2.85828e-15 -262.498 612.496 -1.0842e-19 -262.499 612.495 1.76096e-15 -300 559.997
-1.0842e-19 -300 664.993 -1.25529e-15 -262.499 717.49 0 -262.5 717.49 -3.43822e-15
-300 664.993 1.0842e-19 -300 874.978 0 -300 769.986 0 -300
769.986 -2.33331e-15 -262.5 769.981 0 -225 822.471 -1.86342e-15 -225.001 874.968
5.42101e-20 -225 979.975 0 -300 979.967 0 -225 1084.98 -2.71051e-20
-300 1084.97 2.71051e-20 -225 1189.98 0 -300 1189.98 0 -225
1294.99 -1.35525e-20 -300 1294.99 0 -225 1400 -2.34379e-15 -225 1400
1.35525e-20 -300 -700 0 -150 -594.998 -6.77626e-21 -150 -489.995 -6.77626e-21
-149.999 -384.992 -1.35525e-20 -149.998 -279.989 0 -149.996 -174.987 -5.47847e-16 -149.992
-174.991 -2.71051e-20 -187.495 -122.491 0 -187.495 -69.9921 -2.36329e-15 -187.496 -17.4925
-1.0842e-19 -187.498 87.5043 9.28402e-16 -225.002 35.0068 -1.89584e-15 -187.502 61.2492 1.59681e-15
-187.541 87.5056 0 -187.513 140.005 -2.00317e-15 -187.513 166.254 2.14629e-15 -187.573
192.503 -2.1684e-19 -187.508 192.502 0 -224.999 140.003 0 -225.001 245.001
-1.26223e-15 -187.505 271.251 -4.81169e-16 -187.566 297.501 0 -187.503 297.501 0
-224.996 245.001 0 -224.998 350 1.95915e-15 -187.502 376.25 5.41884e-16 -187.565
402.5 0 -187.502 402.5 0 -224.996 350 0 -224.996 455
4.35416e-16 -187.502 481.25 1.558e-15 -187.565 507.5 0 -187.503 507.499 -2.1684e-19
-224.996 454.999 2.1684e-19 -224.996 560 -1.05883e-15 -187.504 586.25 8.13368e-16 -187.567
612.5 0 -187.506 612.497 0 -224.998 559.998 0 -224.997 665
2.47415e-16 -187.508 691.256 1.87415e-15 -187.51 717.49 0 -187.501 717.489 0
-225 664.994 0 -224.999 769.975 2.13252e-15 -187.501 822.462 0 -187.501
874.957 -3.33067e-15 -187.501 874.936 0 -150.001 979.946 0 -150.001 1084.96
0 -150.001 1189.97 0 -150 1294.99 -1.35525e-20 -150 1400 2.44353e-15
-150 -700 0 -74.9999 -594.997 0 -74.9997 -489.994 0 -74.9993
-384.989 0 -74.998 -279.98 -2.71051e-20 -74.994 -174.966 -3.5831e-15 -74.9817 -175.042
0 -112.513 -122.487 2.71051e-20 -149.991 -122.538 0 -112.545 -70.0149 1.16226e-15
-131.274 -43.7389 0 -131.241 -43.7648 8.67362e-19 -150.038 -69.9896 -5.42101e-20 -149.992
41.1247 -2.1684e-19 -131.373 35.0001 -1.0842e-19 -145.091 34.9986 0 -131.322 140.008
-2.51535e-16 -131.469 153.13 -5.85469e-16 -131.461 166.257 4.33681e-19 -131.458 166.256 0
-150.154 140.007 0 -150.144 245.001 9.68409e-16 -131.437 258.126 4.30211e-16 -131.439
271.25 4.33681e-19 -131.445 271.251 -4.33681e-19 -150.14 245.001 0 -150.126 350
9.19837e-16 -131.436 363.125 3.62557e-16 -131.438 376.25 4.33681e-19 -131.444 376.25 0
-150.139 350 0 -150.124 455 6.72639e-16 -131.436 468.125 9.52797e-16 -131.438
481.25 0 -131.444 481.25 4.33681e-19 -150.139 455 0 -150.124 560
-1.56125e-16 -131.437 573.126 -3.95517e-16 -131.439 586.252 0 -131.446 586.251 0
-150.141 560 -4.33681e-19 -150.125 665.036 -2.27682e-16 -131.448 678.223 1.52222e-16 -131.436
691.391 2.1684e-19 -131.398 691.335 2.1684e-19 -150.098 665.025 0 -150.131 769.996
6.88035e-16 -131.291 770.003 1.66165e-15 -112.564 822.468 0 -112.496 822.443 -2.64719e-15
-150.002 769.976 0 -150.01 874.898 -2.05944e-15 -112.501 874.845 1.0842e-19 -75.0013
979.908 0 -75.0013 1084.95 0 -75.001 1189.97 0 -75.0007 1294.98
0 -75.0005 1400 9.93582e-15 -75.0004 -700 3.38813e-21 -5.72304e-05 -594.997 0
-7.6816e-05 -489.993 6.77626e-21 -0.000116721 -384.986 1.35525e-20 -0.000163077 -280.089 -8.67362e-19 0.0558625
-175.074 -5.25404e-16 0.00335334 -175.025 0 -37.5011 -122.562 -2.71051e-20 -72.9365 -122.561
0 -75.0498 -155.702 0 -37.5077 -63.3483 1.35525e-20 -75.0926 -70.0553 0
-75.0911 -70.0605 6.79409e-16 -65.7232 -68.6047 1.69407e-21 -65.7244 34.986 0 -75.0512
34.9795 -3.98986e-17 -73.8989 36.9971 -4.33681e-19 -73.5755 36.642 -8.67362e-19 -75.0089 769.928
-1.9095e-15 -56.2604 769.811 -5.16297e-16 -37.501 822.384 0 -37.5037 822.398 -2.1684e-19
-75.0054 769.919 2.1684e-19 -75.0268 874.877 1.27849e-15 -37.4969 874.75 0 -0.00319055
979.88 0 -0.00258442 1084.94 0 -0.00172148 1189.96 -2.71051e-20 -0.00107926 1294.98
2.71051e-20 -0.000692181 1400 -1.76817e-15 -0.000518079 -700 0 74.9998 -594.997 0
74.9996 -489.994 0 74.999 -385.121 0 75.0756 -280.13 0 75.0339
-175.132 6.25163e-16 75.065 -175.108 -1.35525e-20 37.5271 -137.624 0 37.543 -122.618
3.38813e-21 31.1048 -122.604 0 18.774 -122.595 -1.0842e-19 0.00160859 -70.0522 0
0.00137791 -70.0712 -1.59215e-16 2.34763 -66.7567 0 2.3453 -66.6893 2.71051e-20 1.16896
-66.6788 0 0.00102337 140.57 0 -0.000701733 140.61 1.59412e-16 4.68711 147.092
0 4.68742 147.089 8.47033e-22 2.3437 147.079 0 -0.000115042 769.672 8.57604e-17
18.7477 769.818 1.56364e-15 37.4984 822.375 0 37.5044 822.289 -1.0842e-19 -0.00139072
769.67 0 -0.00120793 874.872 1.34636e-15 37.4981 874.931 0 75.0096 979.906
-1.0842e-19 74.9957 1084.94 5.42101e-20 74.9976 1189.97 0 74.9987 1294.98 0
74.9992 1400 1.06882e-15 74.9994 -385.123 1.35525e-20 125.208 -467.393 0 150.013
-385.123 1.35525e-20 150.066 -280.139 0 133.803 -280.142 5.42101e-20 150.071 -175.117
0 150.111 -175.127 2.71051e-20 112.607 -175.132 8.47033e-21 76.5976 -700 0
150 -594.998 0 149.999 -489.995 0 149.999 -173 -8.47033e-22 75.0666
-43.8386 5.42101e-20 82.1741 -61.7019 4.33681e-19 93.8719 -43.8344 0 93.8496 -43.8397
0 84.47 34.9672 8.67362e-19 75.1266 34.9631 6.07153e-17 76.3154 36.5996 0
76.3272 36.5972 0 75.1603 769.851 1.94072e-16 93.7353 769.91 4.87891e-17 112.484
822.388 2.1684e-19 112.488 822.424 0 75.0203 769.938 0 75.0374 874.89
-1.51843e-15 112.491 874.931 0 149.992 979.943 -5.42101e-20 149.996 1084.96 0
149.998 1189.97 0 149.999 1294.99 1.35525e-20 149.999 1400 3.13531e-15 150
-490.027 -1.69407e-21 191.871 -550.997 0 225.02 -490.052 0 225.049 -385.109
0 225.056 -280.111 0 225.088 -175.063 0 225.071 -175.095 -1.04734e-15
187.6 -700 1.69407e-21 225 -594.998 0 225 -69.9883 1.35525e-20 149.988
-69.9918 1.15912e-15 187.493 -17.4927 -2.71051e-20 187.494 -17.4935 -2.71051e-20 187.264 -69.8343
0 149.989 34.9964 -8.67362e-19 150.059 34.9742 2.328e-15 168.92 61.2353 4.33681e-19
168.925 61.2356 0 150.177 140.007 -2.1684e-19 150.162 140.005 2.2031e-16 168.912
166.254 0 168.906 166.255 0 150.151 245.001 0 150.163 245.001
-8.48063e-16 168.916 271.251 2.1684e-19 168.914 271.251 0 150.173 350 4.33681e-19
150.176 350 -7.54822e-16 168.91 376.25 0 168.911 376.25 0 150.177
455 -4.33681e-19 150.176 455 1.86136e-15 168.909 481.25 2.1684e-19 168.911 481.25
-4.33681e-19 150.177 560 0 150.178 559.999 1.82363e-16 168.913 586.249 0
168.917 586.25 -2.1684e-19 150.182 665.03 0 150.193 665.023 9.37618e-16 168.922
691.243 2.1684e-19 168.722 691.248 2.1684e-19 149.967 822.435 -1.0842e-19 149.988 769.955
1.63931e-15 149.984 769.97 1.98474e-15 187.486 822.458 0 187.49 874.953 -1.11022e-15
187.492 874.965 0 224.995 979.965 -5.42101e-20 224.997 1084.97 0 224.999
1189.98 0 224.999 1294.99 1.35525e-20 225 1400 5.69857e-15 225 -557.446
-1.69407e-21 300 -490.046 0 300 -385.098 0 300 -280.093 4.33681e-19
300 -175.043 0 300 -76.1356 -9.48677e-20 300 -70.9141 1.35525e-20 224.996
-122.548 1.52656e-15 225.065 -700 7.74253e-15 300 -594.999 -3.38813e-21 300 -69.994
0 224.995 -69.9962 0 300 -69.9956 0 262.498 -66.9054 -1.35525e-20
262.501 -69.5321 1.35525e-20 224.996 34.987 -1.35525e-20 225.11 34.9914 0 245.756
48.6354 6.77626e-21 262.555 87.5011 -2.71051e-20 262.555 87.5003 0 225.111 140.003
0 225.108 140.002 4.23766e-15 262.554 192.502 1.0842e-19 262.552 192.502 -1.0842e-19
225.104 245.001 0 225.099 245.001 4.05719e-15 262.55 297.501 0 262.548
297.501 1.0842e-19 225.096 350 0 225.095 350 4.93019e-15 262.548 402.5
-1.0842e-19 262.547 402.5 0 225.094 454.999 0 225.095 454.999 3.44917e-15
262.547 507.498 -1.0842e-19 262.548 507.499 0 225.095 559.998 0 225.097
559.997 -2.99446e-15 262.549 612.495 -1.0842e-19 262.55 612.497 0 225.1 665.007
0 225.1 664.999 -1.53902e-15 262.55 717.488 0 262.493 717.486 0
224.987 874.976 5.42101e-20 300 822.468 -1.0842e-19 224.992 769.978 1.0842e-19 224.99
769.984 2.22619e-15 262.494 769.984 -5.42101e-20 300 979.974 0 300 1084.98
0 300 1189.98 0 300 1294.99 0 300 1400 0
300 35.0007 1.0842e-19 -150.05 48.1118 -4.33681e-19 -131.431 61.2412 0 -131.442
61.2454 -8.16187e-16 -150.132 113.757 1.61373e-15 -150.161 113.759 0 -131.483 126.884
0 -131.48 36.6261 0 -76.2272 34.9816 0 -76.238 218.752 -3.57353e-16
-150.144 218.752 0 -131.448 231.876 0 -131.44 323.75 1.03563e-15 -150.139
323.75 0 -131.444 336.875 0 -131.438 428.75 -4.93529e-16 -150.139 428.75
0 -131.444 441.875 0 -131.438 533.75 7.76722e-16 -150.139 533.75 -4.33681e-19
-131.444 546.875 0 -131.438 638.758 3.45644e-16 -150.146 638.763 0 -131.452
651.896 0 -131.45 743.79 2.27682e-16 -150.061 743.801 0 -131.328 769.993
1.11586e-15 -93.8109 743.802 -4.33681e-19 -93.8571 743.703 0 -75.0596 -56.9292 0
-75.094 -56.9379 0 -65.7339 33.3342 -4.51028e-17 -75.0811 33.3312 0 -73.9207
-66.6946 -1.14465e-16 -1.1662 -66.7666 0 -2.34209 -70.0751 2.71051e-20 -2.34396 140.61
-6.28085e-16 -4.68798 140.61 0 -9.376 127.471 0 -9.37901 127.406 0
-0.00361664 147.088 5.84165e-17 -2.34381 147.091 1.69407e-21 -4.68759 743.677 -2.1684e-19 -56.2792
769.679 -1.47712e-15 -18.7503 743.335 -1.0842e-19 -18.7499 743.292 0 -0.00040476 -70.0909
[...]
POINT_DATA 7981
FIELD attributes 1
p 1 7981 float
3.93326 3.94158 3.95672 3.95819 3.89562 3.96012 3.76473 3.93404 3.3549 3.76214 2.11592
2.90893 -1.28131 2.17452 0.0149032 -8.47989 -3.30629 -8.6656 -9.2554 -12.6962 -12.8771
-15.6079 -16.117 -15.8196 -15.222 -15.7061 -15.4401 -15.3949 -15.592 -15.368 -15.2805
-15.2275 -15.3192 -15.1401 -14.9743 -14.8854 -15.0785 -14.7175 -14.176 -13.9718 -14.5782
-13.074 -11.1583 -10.9384 -12.8218 -3.34931 -8.35483 -8.96148 -8.61609 -4.56426 -2.1788
-0.741443 -0.274789 -0.170595 0.0872825 -0.0338141 0.204599 0.0305064 0.199484 0 0.0180665
3.99317 4.01815 4.11981 4.38876 4.9897 6.03055 4.06493 3.62774 1.87349 -2.34354
-13.8325 -9.38753 -14.0633 -17.483 -20.2549 -19.5955 -18.0475 -16.9155 -16.8663 -16.2511
-15.7982 -15.6112 -15.5005 -15.958 -15.5193 -15.5256 -15.4984 -15.3648 -15.4287 -15.4803
-15.5275 -15.5858 -15.2107 -15.2734 -15.8307 -16.0359 -16.0227 -14.8135 -15.1272 -15.6803
-15.2263 -13.6532 -11.891 -13.9014 -8.79815 -3.30327 -0.636393 2.0602 1.17943 0.667928
0.497573 0.271997 0 4.02994 4.07765 4.28312 4.90448 6.70345 12.3876 9.04537
6.4831 10.8888 8.0296 6.50556 3.87933 5.30963 -13.5863 -10.5712 -10.8606 -31.2898
-26.9055 -22.7827 -21.9321 -26.3754 -15.927 -15.7598 -15.652 -15.8081 -16.2177 -15.5574
-15.6238 -15.668 -15.6042 -15.5407 -15.7918 -15.8607 -15.9495 -15.802 -15.6979 -17.2385
-17.6291 -18.0008 -17.2533 -16.7398 -21.6148 -22.6323 -22.8742 -18.8969 -18.9833 -10.3883
-8.05467 5.44514 -0.633744 -8.9131 6.67228 13.9225 4.5498 2.73111 1.68117 0.759298
0 4.0463 4.10306 4.35245 5.13636 7.59706 18.1903 17.5886 19.3096 18.587
22.2204 25.9059 25.6954 31.3353 31.2992 -0.201623 -1.11901 -4.49498 -3.44386 -6.45826
-1.13331 29.6498 17.5861 -3.43723 24.1441 24.6791 7.03519 4.48304 2.79873 1.33491
0 4.03333 4.08132 4.28794 4.91118 6.71378 12.3984 17.5788 26.5253 32.8232
38.0239 37.9486 156.778 158.957 177.476 181.04 179.386 -33.8734 -31.8407 -19.4011
-17.4559 -17.9946 -0.296859 1.13687 29.6572 34.0395 5.91347 23.9574 13.7396 4.6337
2.69601 1.63041 0.731509 0 4.57193 4.18817 4.4037 5.38452 5.01656 6.09806
9.09239 12.2634 3.99931 4.02495 4.12896 12.6505 20.2697 17.594 16.0832 19.1265
1.73718 1.9331 -0.388148 -1.4334 -7.9771 -7.42096 5.48044 17.458 -1.4587 6.6207
2.05146 1.16187 0.618867 0.45807 0.255807 0 4.04152 3.96926 3.97224 3.95507
3.79929 3.0074 4.16158 3.96463 3.9671 5.52478 2.06327 -2.22339 -2.21559 5.51685
-10.2901 -10.3064 -15.5812 -17.9429 -26.7526 -23.1367 -20.9855 -22.475 -16.5517 -16.6179
-16.1215 -16.0674 -15.6858 -15.7101 -15.7264 -15.7464 -15.8887 -15.7864 -15.8824 -16.0296
-17.1378 -16.6209 -16.9877 -17.7468 -19.6345 -17.5363 -16.9326 -19.3753 -0.542182 -8.65909
-8.73287 -3.25144 -0.634905 -2.17109 -0.272983 0.0791529 0.194988 0.195533 0 3.93074
3.90885 3.78791 3.39452 2.21509 -1.1117 0.175057 2.31485 3.95011 3.94293 0.136926
-1.31821 -1.44712 -1.61133 0.104857 -8.67931 -8.5295 -9.48199 -12.5432 -13.8112 -16.7866
-15.3572 -16.1371 -16.9891 -16.1359 -15.8509 -15.5856 -15.6736 -15.5772 -15.4987 -15.4304
-15.5223 -15.4644 -15.3268 -15.1921 -15.4398 -15.386 -14.9506 -14.4045 -15.0833 -14.1355
-13.2674 -11.2782 -12.0153 -3.33634 -4.53848 -8.62509 -9.01373 -8.40707 -0.739651 -0.181707
-0.052523 0.0157486 0.012786 -10.4671 -16.6952 -22.7604 -18.0958 -28.3584 -37.1534 -35.7263
-2.37958 0.395659 -16.9044 -16.4907 -16.1141 -15.501 -15.4586 -15.5004 -15.6615 -15.7251
-15.75 -16.3216 -16.6548 -16.9497 -18.4839 -20.1696 -21.0162 -14.5124 -16.5524 -9.27885
-26.4708 -34.7964 26.1074 31.0091 2.65414 1.52602 181.212 177.777 159.172 -31.538
-40.1077 -79.6373 -74.3749 -17.3629 -19.4751 -42.6486 -1.49522 -36.1343 -31.6452 31.4029
25.8016 26.2651 31.1233 1.27256 3.1636 4.25911 -80.4317 -40.227 -0.969655 -35.5571
-3.45887 -39.7508 -31.9453 -22.3624 -16.3833 -10.5392 -32.0572 -36.2869 -37.3803 -28.4117
-23.6888 -27.8464 -16.2786 -16.5286 -16.9914 -17.3294 -15.9103 -16.0603 -15.6874 -15.6361
-15.6118 -15.6645 -15.7921 -15.7478 -15.9867 -15.927 -15.8861 -15.8246 -16.1893 -16.0757
-17.6953 -17.3576 -17.0204 -16.6472 -18.5926 -18.1501 -22.6415 -22.0748 -21.1385 -19.1535
-24.6752 -23.5781 -23.6064 -9.92216 -16.1049 -14.2854 -2.72976 -3.99602 25.8987 -2.65755
18.1485 23.5243 18.824 15.7929 2.93777 30.1612 25.0054 35.9212 22.9764 31.366
36.923 39.1936 38.0868 152.91 120.062 121.852 20.8202 20.8154 18.9051 17.4516
20.3043 22.6871 22.5138 47.3265 49.0343 62.2044 65.5331 62.016 52.8054 47.5132
-154.164 -142.592 -138.568 -148.705 -94.0408 -69.6153 -71.4919 -76.1216 -101.37 -74.1208
-86.2518 -82.4026 -68.8283 -85.7409 -92.0066 -96.8052 -91.7948 30.1052 120.021 119.812
152.489 153.174 18.6109 24.9826 23.0234 39.1783 36.8859 31.345 -68.1638 -64.5218
-70.78 -100.726 -102.062 18.3033 23.7948 6.77675 4.17702 5.54365 6.82152 8.25199
-7.73735 -2.34768 -3.8281 6.85678 6.85895 2.75676 6.80392 -2.19884 -17.0368 -18.0796
-18.759 -42.6486 -40.9763 -48.8458 -61.9859 -57.3994 -49.5861 -38.443 -29.365 -28.498
-34.6766 -42.0829 -15.9604 -16.3203 -17.2954 -19.285 -17.5246 -15.5931 -15.5834 -15.3454
-15.2652 -15.2132 -15.3093 -15.3178 -15.3509 -15.5035 -15.4413 -15.6369 -15.7437 -15.7839
-15.7329 -15.6556 -15.8211 -15.8102 -15.819 -15.8372 -15.8463 -16.0648 -16.1918 -16.2891
-16.2243 -16.1492 -16.8456 -16.7142 -16.6 -16.5315 -16.7595 -18.2373 -18.7881 -19.1099
-18.8065 -18.5079 -21.6974 -21.1813 -20.6685 -20.1982 -21.0884 -74.5113 -60.1731 -55.7897
-67.0236 -26.6416 -28.5085 -32.1655 -30.5895 -29.0192 -36.0393 -37.4643 -31.738 -29.2983
-8.17998 -19.9684 -18.6318 -9.80185 -49.4609 -40.8722 -50.985 -58.6352 -62.8571 -36.8427
-45.9805 -54.4778 -47.6807 -39.6661 -67.4571 -67.8509 -53.5607 -32.1692 -26.1836 -27.6777
-16.6004 -18.0827 -15.9443 -15.1839 -15.0135 -15.3133 -15.3076 -14.7647 -14.813 -14.9566
-14.7734 -14.7876 -15.8652 -15.0615 -15.1704 -15.3794 -15.3095 -15.3672 -15.2529 -15.2302
-15.2295 -15.5027 -15.3957 -15.3796 -15.4412 -15.5065 -15.216 -15.2256 -15.2825 -15.5764
-15.6309 -15.6046 -15.7289 -15.7235 -15.722 -15.7124 -15.7098 -15.8758 -15.8033 -15.8428
-15.8899 -15.9471 -15.7079 -15.728 -15.7331 -16.0184 -16.0803 -15.9778 -16.4411 -16.2519
-16.3468 -16.437 -16.5417 -17.7174 -17.3182 -17.5065 -17.7294 -17.9518 -16.6687 -16.8074
-16.6808 -18.2154 -18.4816 -18.1925 -20.0883 -19.3699 -19.7569 -20.1573 -20.5613 -24.8633
-23.2712 -24.3969 -25.4123 -26.5028 -21.0541 -21.5703 -20.9497 -27.9183 -29.7238 -26.8569
-57.3947 -59.9368 -31.2399 -36.9569 -36.429 -29.5635 20.9271 46.9662 17.4263 18.8206
17.3311 -106.924 -106.511 -112.915 19.2498 72.1866 74.6244 -122.567 -117.62 -156.764
-160.525 -101.361 -72.1545 -64.9917 -122.53 -112.95 -133.113 61.9229 65.2066 74.156
71.771 47.8057 62.9157 48.9151 18.0023 19.4778 21.3984 21.4728 23.137 20.7187
17.9247 19.8453 -131.105 -142.99 -128.54 -99.595 -104.928 -114.092 -148.429 -134.99
-152.27 -148.085 46.9581 52.7407 61.8056 -98.7619 -120.575 -125.558 -106.05 -152.886
-156.992 -83.6998 -79.0716 -76.4747 -80.8945 -86.436 -93.9776 -97.1553 -91.6006 -86.3142
-7.19879 -9.03608 -17.7583 -39.9313 -49.9861 -56.3923 -47.1919 -53.5101 -67.8595 -66.9901
-15.1316 -15.1393 -15.6947 -16.5642 -15.4358 -15.5432 -15.5795 -15.5074 -15.5258 -15.415
-15.3049 -15.2861 -16.087 -16.0318 -15.9743 -15.8684 -15.8655 -15.8299 -18.2543 -17.9975
-17.7757 -17.0405 -17.167 -16.9958 -27.8315 -26.5633 -24.9209 -22.1533 -22.9811 -22.3282
-123.618 -122.535 -124.876 -125.893 -49.6305 -51.1689 -56.5356 -68.0438 -63.9202 -83.1734
-74.6442 -77.351 -80.9887 -89.0026 -69.8737 -66.4695 -84.1774 -60.7634 -65.4161 -65.4032
-60.9659 -82.8387 -85.9771 -4.17393 -10.0087 -8.9973 -2.05083 -44.2197 -36.9507 -29.8671
-28.6627 -40.5993 -44.5016 -33.1415 -30.617 -37.2313 -44.8647 -13.4669 -14.0864 -15.6138
-19.1629 -16.3978 -14.818 -14.9997 -14.8529 -14.7364 -14.6251 -15.0474 -15.045 -15.0499
-15.1949 -15.1949 -15.719 -15.7806 -15.7418 -15.7286 -15.7059 -15.7227 -15.733 -15.7406
-15.8071 -15.78 -16.2714 -16.3261 -16.3025 -16.2834 -16.2651 -16.4406 -16.4153 -16.385
-16.4179 -16.4615 -18.7185 -19.0108 -19.0297 -18.8759 -18.7397 -20.1809 -19.9887 -19.7715
-19.7184 -20.1104 -56.1608 -52.6786 -50.8398 -60.2997 -68.5205 -31.0647 -33.3007 -33.7095
-32.5702 -31.6419 -47.6946 -42.4378 -40.0359 -43.954 -5.42642 -10.5947 -11.4418 -8.16156
-32.17 -32.2935 -39.6353 -44.42 -3.37614 -5.37987 -42.9233 -30.709 -47.0982 -40.8218
-53.0533 -55.7408 -48.0235 -40.2752 -91.876 -88.1706 -82.5837 -74.3598 -81.7633 -32.6586
-26.3066 -29.6122 -14.3466 -16.5851 -12.7955 -11.615 -11.3289 -14.5974 -14.3736 -14.1464
-14.2951 -14.4569 -13.5664 -13.5935 -13.6782 -14.0805 -14.0044 -14.6016 -14.7248 -14.8164
-15.0487 -15.0362 -14.8946 -14.8842 -14.8947 -15.5697 -15.4963 -15.5147 -15.5624 -15.5937
-15.2786 -15.3044 -15.3384 -15.3608 -15.3024 -15.6197 -15.6309 -15.6397 -15.6815 -15.6921
-15.6193 -15.6127 -15.6101 -16.096 -16.0278 -16.0505 -16.0862 -16.1195 -15.8819 -15.9062
-15.9298 -15.9016 -15.8515 -16.1411 -16.1593 -16.1605 -16.2788 -16.2485 -16.2106 -16.2268
-16.2462 -18.1724 -17.9279 -17.9613 -18.0815 -18.215 -17.3405 -17.4288 -17.5215 -17.4846
-17.2973 -18.3471 -18.4883 -18.4412 -19.3333 -19.0347 -19.0696 -19.2257 -19.3727 -27.5726
-26.3129 -26.4655 -26.9757 -27.5476 -23.7533 -24.149 -24.5562 -24.3361 -23.5245 -28.1488
-29.1364 -29.5509 -55.2961 -43.5223 -45.4456 -36.6973 -38.5709 -44.6186 -41.5111 19.5903
19.5603 18.0169 17.9585 -126.833 -125.456 -150.361 -146.976 -144.569 -148.427 -79.891
-61.1064 -63.5581 -63.3176 -62.3454 -81.0557 -80.3736 18.7668 18.9044 20.5273 20.4258
-126.132 -127.944 -129.495 -128.251 -146.91 -142.87 -145.946 -149.677 -127.232 -125.224
-72.6411 -62.714 -57.3487 -85.863 -82.5096 -79.8384 -86.2719 -91.5383 -52.6624 -60.1673
-56.5742 -83.5768 -76.8741 -85.6734 -90.8656 -94.0724 -14.4933 -14.3833 -14.6461 -14.3616
-14.4271 -14.0358 -13.9594 -13.9271 -15.6723 -15.6285 -15.6413 -15.3873 -15.4673 -15.4448
-15.4044 -15.3679 -16.2357 -16.2146 -16.2166 -16.0495 -16.1041 -16.1215 -16.0962 -16.0745
-18.6014 -18.4758 -18.4546 -17.756 -17.9688 -17.9825 -17.8809 -17.7908 -30.8037 -29.9911
-29.4628 -25.6211 -26.7189 -27.1217 -26.5463 -25.983 -1.62939 -5.56265 -3.30074 15.7952
17.7581 -1.1055 14.9948 12.7716 14.6971 8.0944 6.11582 3.86845 6.23219 26.5442
25.2838 26.826 28.6481 31.7959 33.3321 29.8824 28.2039 -150.909 -149.902 -146.68
-147.717 -149.05 -152.184 35.4118 33.3734 42.2053 41.8925 18.0835 17.2563 -2.60771
-0.297373 15.2173 13.4379 15.7054 18.4221 6.6755 4.39621 6.68307 8.57906 -93.1343
-90.0615 -84.7485 -74.0016 -81.4946 -52.7555 -59.4952 -52.2761 -12.7585 -12.5896 -12.5733
-13.9704 -13.8818 -14.9893 -12.6173 -12.7579 -15.1771 -15.1557 -15.1306 -15.2097 -15.2268
-15.1848 -15.0468 -15.0305 -15.8093 -15.7799 -15.7494 -15.7519 -15.7847 -15.7523 -15.7116
-15.7078 -16.9237 -16.8419 -16.7647 -16.7528 -16.9032 -16.5239 -16.5148 -16.4627 -22.342
-22.0302 -21.7181 -21.5751 -22.1784 -20.5334 -20.6112 -20.376 -82.5633 -75.6464 -86.7547
-91.7514 -94.4704 -55.2659 -62.3726 -55.1222 -97.9342 -99.0635 -86.7315 -86.3072 -97.6881
-95.9537 -13.0326 -12.8913 -11.5523 -11.6768 -11.9742 -10.9329 -11.0462 -13.3701 -12.1763
-12.509 -13.3186 -13.8679 -13.38 -13.4669 -15.17 -15.1405 -15.0931 -15.1303 -15.1572
-14.8949 -14.9351 -15.066 -15.1816 -15.1983 -15.1962 -15.2549 -15.2361 -15.2527 -15.6577
-15.6426 -15.6245 -15.6498 -15.6729 -15.601 -15.605 -15.6656 -15.6977 -15.7213 -15.6931
-15.7972 -15.8219 -15.8547 -16.597 -16.4784 -16.4751 -16.5422 -16.6197 -16.2636 -16.3023
-16.3223 -16.7009 -16.7936 -16.7521 -17.1141 -17.1566 -17.2519 -20.9013 -20.4406 -20.5323
-20.7702 -21.0184 -19.5253 -19.7088 -19.6563 -21.2869 -21.5954 -21.4481 -22.7788 -22.9907
-23.3805 41.5489 34.868 35.116 39.5625 18.0176 18.0998 18.41 21.2265 21.5491
21.6415 19.6006 41.681 32.5907 -91.9538 -92.9223 -87.3382 -85.8586 -106.809 -112.213
-103.584 -93.9025 27.9271 25.4636 24.3598 30.1727 -153.626 -152.745 -151.909 -153.243
26.9789 28.4274 26.0248 25.63 20.4215 21.6737 21.5957 18.7833 18.8247 28.4324
24.8708 26.0013 30.4402 -84.5798 -83.6804 -78.0486 -79.3267 -97.956 -85.3927 -94.3596
-102.82 39.8627 35.5619 29.0882 27.0347 32.0826 28.617 30.3106 33.6292 30.7932
-142.565 -141.369 -145.477 -146.35 -147.712 -143.923 -148.798 -149.738 -153.202 -151.409
-86.3048 -98.4177 -96.8908 -97.683 -98.951 -87.3842 -13.9486 -13.045 -12.8155 -13.8218
-13.7262 -14.2537 -15.2414 -15.2071 -15.1897 -15.3289 -15.2944 -15.3175 -15.8376 -15.883
-15.8452 -16.049 -16.0146 -15.9832 -17.0906 -17.1252 -17.0106 -17.6948 -17.5831 -17.5382
-22.8774 -23.0626 -22.6762 -25.459 -24.916 -24.6135 0.0508184 -3.39554 -2.7667 0.858845
-19.0807 -12.7745 -12.4199 -18.0348 -43.7919 -39.2442 -38.2798 -42.7966 -15.3252 -17.1539
-18.0788 -16.3645 -14.5765 -14.7152 -14.7456 -14.5895 -14.9364 -14.9106 -14.8935 -14.9306
-15.7311 -15.7336 -15.7495 -15.7607 -15.7325 -15.7345 -15.7326 -15.7306 -16.2666 -16.275
-16.2793 -16.2788 -16.3462 -16.3183 -16.3188 -16.3423 -18.7707 -18.8949 -18.9171 -18.7925
-19.4487 -19.2447 -19.234 -19.4317 -35.3888 -33.994 -36.3866 -38.8645 -31.9984 -32.7498
-32.7903 -32.4318 -32.1034 -34.3862 -32.2375 -31.7603 -34.2864 -36.4215 -4.52149 -4.54272
-4.74974 -21.6888 -20.3969 -14.4569 -14.9559 -0.164533 -4.18835 -1.23653 -38.5629 -43.0121
-42.1475 -37.5219 -72.9041 -68.759 -69.2984 -73.3529 -32.9457 -33.954 -12.0792 -13.5417
-12.5172 -10.8706 -14.4417 -14.253 -14.2093 -14.4067 -13.7982 -13.9113 -13.9437 -13.8185
-14.5985 -14.6174 -14.8506 -14.8226 -14.831 -14.8664 -15.6472 -15.6204 -15.6568 -15.6755
-15.4822 -15.5528 -15.5209 -15.458 -15.6624 -15.6436 -15.5896 -15.6079 -15.613 -15.5943
-16.1401 -16.0973 -16.1196 -16.1577 -16.0117 -16.0366 -16.0257 -16.002 -16.1576 -16.1471
-16.1763 -16.1655 -16.1678 -16.1803 -18.25 -18.0929 -18.1064 -18.2647 -17.7922 -17.8861
-17.88 -17.7846 -18.4026 -18.3835 -18.8151 -18.6741 -18.6798 -18.823 -27.2216 -26.8729
-26.8395 -27.0697 -25.695 -26.1192 -26.088 -25.6505 -27.0284 -27.4388 -32.0385 -29.9973
-26.9435 -28.3872 -28.3443 -25.6238 -26.0449 -27.412 -30.6373 16.0298 15.0225 13.2252
13.1172 12.8539 12.7761 14.963 -132.21 -114.032 -73.5825 -103.988 -104.484 -121.179
-132.517 -117.224 -157.736 -143.597 -130.236 16.0513 13.7336 13.6867 14.3244 16.0414
17.0379 -114.57 -131.274 -121.139 -105.012 -76.5249 -115.321 -134.444 -155.436 -141.409
-47.3256 -48.1709 -77.4378 -73.6118 -73.0748 -76.9968 -14.4115 -14.4246 -14.0946 -14.1822
-14.1461 -14.0704 -15.7375 -15.7006 -15.5562 -15.6014 -15.6299 -15.5782 -16.2455 -16.2303
-16.1907 -16.1906 -16.1965 -16.1988 -18.6265 -18.6118 -18.2659 -18.3707 -18.3815 -18.2779
-31.7653 -31.3124 -31.1695 -28.9184 -29.6474 -29.8293 -29.0913 -0.233996 1.86613 15.0825
17.6022 15.2266 13.5949 8.65639 7.54555 5.37572 6.6686 40.8775 40.074 43.6198
45.724 -116.158 -108.515 -120.297 40.8259 39.5513 28.4637 31.1208 15.8636 14.4833
16.1318 18.5396 2.94138 0.789293 7.41166 6.18777 8.39271 9.44055 -109.005 -107.26
-104.774 -106.061 -87.6693 -91.0492 -94.8212 -92.267 -11.7451 -11.5533 -11.8309 -11.9986
-11.1744 -11.4457 -11.1467 -10.814 -15.2781 -15.2539 -15.2123 -15.2398 -15.0766 -15.1159
-15.1485 -15.104 -15.8906 -15.8611 -15.841 -15.8712 -15.7859 -15.7815 -15.7997 -15.8037
-16.9468 -16.8565 -16.8537 -16.9357 -16.6949 -16.7244 -16.7296 -16.7008 -22.4917 -22.1606
-22.13 -22.4546 -21.2912 -21.5465 -21.5857 -21.3279 -107.189 -106.137 -108.396 -109.891
-94.8216 -97.3965 -93.7968 -90.4653 -111.042 -108.722 -109.363 -110.081 -111.261 -110.691
-11.2569 -10.984 -10.7726 -11.0444 -9.66347 -10.1373 -10.4171 -10.0376 -11.3604 -11.5704
-12.682 -12.3403 -12.1868 -12.5684 -15.2589 -15.2139 -15.246 -15.2873 -15.0303 -15.1063
-15.0796 -15.0099 -15.3097 -15.2855 -15.2684 -15.2887 -15.2992 -15.2754 -15.7536 -15.7276
-15.7586 -15.7813 -15.669 -15.6865 -15.6602 -15.6475 -15.7768 -15.7576 -15.7808 -15.7774
-15.7721 -15.7721 -16.6728 -16.5837 -16.5899 -16.684 -16.4428 -16.4708 -16.4644 -16.4376
-16.765 -16.7495 -17.0227 -16.9447 -16.9432 -17.0179 -21.1161 -20.8501 -20.871 -21.1411
-20.2485 -20.4394 -20.4138 -20.2257 -21.4335 -21.3906 -22.4319 -22.0821 -22.1134 -22.4604
30.5338 41.4206 39.8288 32.5433 30.809 29.507 30.828 33.6396 27.1821 37.969
-87.3573 -82.9013 -49.1013 -53.4915 -49.3387 -43.9706 42.1673 27.0682 36.9695 -126.547
-122.707 -151.367 -145.011 -147.575 -154.615 -152.653 -148.175 -144.615 -154.763 -159.807
-157.104 -155.654 -157.008 -79.3672 -75.3192 -48.3378 -44.5034 -39.8007 -44.63 32.8401
39.0934 44.8201 43.6314 40.5318 42.1285 29.4046 30.9449 33.7032 30.7356 43.8771
-119.164 -125.185 -129.546 -155.2 -149.823 -146.618 -151.547 -145.731 -150.358 -152.997
-156.059 -159.141 -150.951 -157.639 -156.026 -123.624 -112.892 -107.82 -110.349 -111.461
-111.799 -110.516 -110.022 -12.2049 -12.0105 -12.9643 -12.6862 -12.7767 -13.0362 -15.2534
-15.2854 -15.2872 -15.2876 -15.2744 -15.2781 -15.8957 -15.9077 -15.9576 -15.9563 -15.964
-15.9679 -17.014 -17.0321 -17.3861 -17.2845 -17.2813 -17.3864 -22.7836 -22.8394 -24.2101
-23.7328 -23.6756 -24.1498 -108.793 -116.8 -117.006 -111.705 -60.0178 -53.931 -47.8675
-41.3613 -51.5924 -24.4327 -26.3688 -10.2196 -10.7097 -11.543 -11.0208 -14.7923 -14.0173
-14.9798 -14.9739 -14.9778 -14.9793 -14.95 -14.9483 -15.7585 -15.7623 -15.7499 -15.743
-15.7237 -15.7275 -16.469 -16.4362 -16.4306 -16.4573 -16.3457 -16.3532 -20.2627 -20.0649
-20.0466 -20.2406 -19.6044 -19.6289 -53.6714 -44.9265 -51.6067 -55.2392 -27.1883 -29.6465
-55.3666 -58.6059 -64.1152 -98.5861 -96.0476 -95.8636 -98.2351 -77.2104 -76.8498 -8.80665
-8.95844 -8.1101 -8.05815 -9.88142 -10.7646 -13.3539 -13.451 -13.4727 -13.3947 -13.6893
-13.6785 -14.8287 -14.8339 -14.8493 -14.8421 -14.8709 -14.852 -15.2643 -15.2855 -15.2773
-15.2577 -15.3822 -15.3979 -15.5974 -15.5903 -15.602 -15.6111 -15.5817 -15.5746 -15.8764
-15.8975 -15.8869 -15.8676 -15.9511 -15.9604 -16.2707 -16.239 -16.2492 -16.2851 -16.1883
-16.1798 -17.3577 -17.451 -17.4362 -17.3496 -17.6449 -17.6548 -19.415 -19.2543 -19.2642
-19.4308 -18.9555 -18.9393 -23.9416 -24.3413 -24.2787 -23.8895 -25.1505 -25.2037 16.559
17.644 16.7248 23.0932 23.3651 23.8716 24.6727 24.0764 21.5805 -142.183 -137.769
-137.746 -142.363 -146.833 -146.499 17.8841 18.7648 17.5414 25.492 24.8381 24.4293
24.3973 22.3193 25.0062 -150.303 -146.144 -145.541 -149.675 -153.436 -153.668 -118.036
-122.27 -122.252 -115.61 -100.622 -98.5007 -98.7353 -101.046 -80.7343 -81.0772 -13.696
-13.8005 -13.7721 -13.6361 -13.9911 -14.001 -15.3768 -15.4003 -15.41 -15.3872 -15.5076
-15.4939 -16.0532 -16.0682 -16.0788 -16.061 -16.154 -16.1463 -17.7731 -17.8528 -17.8654
-17.7779 -18.1103 -18.1004 -26.2415 -26.8003 -26.9111 -26.3364 -28.2532 -28.1278 -76.7881
-66.7748 -71.381 -77.9693 -91.2589 -85.4804 -81.6691 -72.4328 -92.6092 -89.8581 -61.9044
-71.8135 -67.2498 -89.4468 -85.0683 -10.7825 -10.0462 -10.434 -10.9046 -14.9864 -14.9958
-15.0622 -15.0416 -15.7371 -15.7551 -15.7942 -15.779 -16.4806 -16.5001 -16.6375 -16.6306
-20.4284 -20.4633 -21.0269 -20.9924 -70.519 -74.9368 -70.4273 -65.641 -88.1046 -92.2933
-100.546 -100.887 -109.902 -108.851 -8.25234 -8.92193 -9.60666 -9.12031 -13.2983 -13.2431
-12.8639 -12.9516 -14.8557 -14.8416 -14.9418 -14.9566 -15.2484 -15.2547 -15.2555 -15.2492
-15.6173 -15.6013 -15.6311 -15.648 -15.8371 -15.8404 -15.7749 -15.7809 -16.3187 -16.2999
-16.3937 -16.3994 -17.2534 -17.2545 -17.0775 -17.0783 -19.6135 -19.5817 -20.0077 -20.0326
-23.4991 -23.5447 -22.7928 -22.7554 30.9346 30.4055 31.655 24.5546 23.7256 25.5163
25.8831 -121.558 -119.918 -115.563 -116.552 -129.774 -128.795 -119.569 -121.261 24.9178
25.1523 32.9201 31.6561 32.7977 39.7308 37.9776 32.4163 32.0369 33.4464 -159.792
-159.53 -160.275 -160.476 -160.428 -159.819 33.0293 33.3607 32.2001 30.9623 24.2634
25.1298 26.6534 26.1017 34.2709 33.4075 33.2785 -68.9621 -77.3118 -82.8395 -70.8803
-67.2245 -73.4151 -64.8401 -150.042 -151.291 -151.272 -144.582 -144.203 -113.401 -112.769
-117.639 -118.555 -120.801 -119.951 -128.602 -129.172 -84.2022 -81.3587 -108.001 -112.004
-110.472 26.0381 25.4696 39.8419 41.7036 -70.2154 -63.6135 -59.3688 -151.316 -160.059
-159.511 -158.793 -159.368 -159.7 -160.342 -103.107 -102.689 -109.746 -110.881 -13.4952
-13.5731 -13.2461 -13.1742 -15.3612 -15.3515 -15.2881 -15.2957 -16.0285 -16.0285 -15.9639