# vtk DataFile Version 2.0
sampleSurface
ASCII
DATASET POLYDATA
POINTS 7981 float
-594.999 0 -300 -700 0 -300 -700 0 -225 -594.998 0
-225 -489.997 -6.77626e-21 -300 -489.997 0 -224.999 -384.996 1.35525e-20 -300
-384.995 0 -224.999 -279.995 0 -300 -279.993 0 -224.998 -174.995
-2.71051e-20 -300 -174.993 0 -224.997 -69.9955 5.42101e-20 -300 -122.493 2.67332e-15
-224.996 -69.9938 0 -224.998 35.0032 0 -300 -17.494 8.04478e-17 -224.999
35.005 1.0842e-19 -225 35.0036 0 -262.5 87.5027 1.73798e-15 -300 87.5032
0 -262.5 140.003 1.16508e-15 -262.5 192.502 0 -262.499 192.502 4.39069e-15
-300 140.002 0 -300 245.001 -1.02663e-15 -262.499 297.501 0 -262.498
297.501 -9.74372e-16 -300 245.001 1.0842e-19 -300 350 -1.52374e-15 -262.498 402.5
1.0842e-19 -262.498 402.5 -1.22255e-15 -300 350 -1.0842e-19 -300 454.999 -4.20128e-16
-262.498 507.499 1.0842e-19 -262.498 507.498 -2.10064e-15 -300 454.999 0 -300
559.997 -2.85828e-15 -262.498 612.496 -1.0842e-19 -262.499 612.495 1.76096e-15 -300 559.997
-1.0842e-19 -300 664.993 -1.25529e-15 -262.499 717.49 0 -262.5 717.49 -3.43822e-15
-300 664.993 1.0842e-19 -300 874.978 0 -300 769.986 0 -300
769.986 -2.33331e-15 -262.5 769.981 0 -225 822.471 -1.86342e-15 -225.001 874.968
5.42101e-20 -225 979.975 0 -300 979.967 0 -225 1084.98 -2.71051e-20
-300 1084.97 2.71051e-20 -225 1189.98 0 -300 1189.98 0 -225
1294.99 -1.35525e-20 -300 1294.99 0 -225 1400 -2.34379e-15 -225 1400
1.35525e-20 -300 -700 0 -150 -594.998 -6.77626e-21 -150 -489.995 -6.77626e-21
-149.999 -384.992 -1.35525e-20 -149.998 -279.989 0 -149.996 -174.987 -5.47847e-16 -149.992
-174.991 -2.71051e-20 -187.495 -122.491 0 -187.495 -69.9921 -2.36329e-15 -187.496 -17.4925
-1.0842e-19 -187.498 87.5043 9.28402e-16 -225.002 35.0068 -1.89584e-15 -187.502 61.2492 1.59681e-15
-187.541 87.5056 0 -187.513 140.005 -2.00317e-15 -187.513 166.254 2.14629e-15 -187.573
192.503 -2.1684e-19 -187.508 192.502 0 -224.999 140.003 0 -225.001 245.001
-1.26223e-15 -187.505 271.251 -4.81169e-16 -187.566 297.501 0 -187.503 297.501 0
-224.996 245.001 0 -224.998 350 1.95915e-15 -187.502 376.25 5.41884e-16 -187.565
402.5 0 -187.502 402.5 0 -224.996 350 0 -224.996 455
4.35416e-16 -187.502 481.25 1.558e-15 -187.565 507.5 0 -187.503 507.499 -2.1684e-19
-224.996 454.999 2.1684e-19 -224.996 560 -1.05883e-15 -187.504 586.25 8.13368e-16 -187.567
612.5 0 -187.506 612.497 0 -224.998 559.998 0 -224.997 665
2.47415e-16 -187.508 691.256 1.87415e-15 -187.51 717.49 0 -187.501 717.489 0
-225 664.994 0 -224.999 769.975 2.13252e-15 -187.501 822.462 0 -187.501
874.957 -3.33067e-15 -187.501 874.936 0 -150.001 979.946 0 -150.001 1084.96
0 -150.001 1189.97 0 -150 1294.99 -1.35525e-20 -150 1400 2.44353e-15
-150 -700 0 -74.9999 -594.997 0 -74.9997 -489.994 0 -74.9993
-384.989 0 -74.998 -279.98 -2.71051e-20 -74.994 -174.966 -3.5831e-15 -74.9817 -175.042
0 -112.513 -122.487 2.71051e-20 -149.991 -122.538 0 -112.545 -70.0149 1.16226e-15
-131.274 -43.7389 0 -131.241 -43.7648 8.67362e-19 -150.038 -69.9896 -5.42101e-20 -149.992
41.1247 -2.1684e-19 -131.373 35.0001 -1.0842e-19 -145.091 34.9986 0 -131.322 140.008
-2.51535e-16 -131.469 153.13 -5.85469e-16 -131.461 166.257 4.33681e-19 -131.458 166.256 0
-150.154 140.007 0 -150.144 245.001 9.68409e-16 -131.437 258.126 4.30211e-16 -131.439
271.25 4.33681e-19 -131.445 271.251 -4.33681e-19 -150.14 245.001 0 -150.126 350
9.19837e-16 -131.436 363.125 3.62557e-16 -131.438 376.25 4.33681e-19 -131.444 376.25 0
-150.139 350 0 -150.124 455 6.72639e-16 -131.436 468.125 9.52797e-16 -131.438
481.25 0 -131.444 481.25 4.33681e-19 -150.139 455 0 -150.124 560
-1.56125e-16 -131.437 573.126 -3.95517e-16 -131.439 586.252 0 -131.446 586.251 0
-150.141 560 -4.33681e-19 -150.125 665.036 -2.27682e-16 -131.448 678.223 1.52222e-16 -131.436
691.391 2.1684e-19 -131.398 691.335 2.1684e-19 -150.098 665.025 0 -150.131 769.996
6.88035e-16 -131.291 770.003 1.66165e-15 -112.564 822.468 0 -112.496 822.443 -2.64719e-15
-150.002 769.976 0 -150.01 874.898 -2.05944e-15 -112.501 874.845 1.0842e-19 -75.0013
979.908 0 -75.0013 1084.95 0 -75.001 1189.97 0 -75.0007 1294.98
0 -75.0005 1400 9.93582e-15 -75.0004 -700 3.38813e-21 -5.72304e-05 -594.997 0
-7.6816e-05 -489.993 6.77626e-21 -0.000116721 -384.986 1.35525e-20 -0.000163077 -280.089 -8.67362e-19 0.0558625
-175.074 -5.25404e-16 0.00335334 -175.025 0 -37.5011 -122.562 -2.71051e-20 -72.9365 -122.561
0 -75.0498 -155.702 0 -37.5077 -63.3483 1.35525e-20 -75.0926 -70.0553 0
-75.0911 -70.0605 6.79409e-16 -65.7232 -68.6047 1.69407e-21 -65.7244 34.986 0 -75.0512
34.9795 -3.98986e-17 -73.8989 36.9971 -4.33681e-19 -73.5755 36.642 -8.67362e-19 -75.0089 769.928
-1.9095e-15 -56.2604 769.811 -5.16297e-16 -37.501 822.384 0 -37.5037 822.398 -2.1684e-19
-75.0054 769.919 2.1684e-19 -75.0268 874.877 1.27849e-15 -37.4969 874.75 0 -0.00319055
979.88 0 -0.00258442 1084.94 0 -0.00172148 1189.96 -2.71051e-20 -0.00107926 1294.98
2.71051e-20 -0.000692181 1400 -1.76817e-15 -0.000518079 -700 0 74.9998 -594.997 0
74.9996 -489.994 0 74.999 -385.121 0 75.0756 -280.13 0 75.0339
-175.132 6.25163e-16 75.065 -175.108 -1.35525e-20 37.5271 -137.624 0 37.543 -122.618
3.38813e-21 31.1048 -122.604 0 18.774 -122.595 -1.0842e-19 0.00160859 -70.0522 0
0.00137791 -70.0712 -1.59215e-16 2.34763 -66.7567 0 2.3453 -66.6893 2.71051e-20 1.16896
-66.6788 0 0.00102337 140.57 0 -0.000701733 140.61 1.59412e-16 4.68711 147.092
0 4.68742 147.089 8.47033e-22 2.3437 147.079 0 -0.000115042 769.672 8.57604e-17
18.7477 769.818 1.56364e-15 37.4984 822.375 0 37.5044 822.289 -1.0842e-19 -0.00139072
769.67 0 -0.00120793 874.872 1.34636e-15 37.4981 874.931 0 75.0096 979.906
-1.0842e-19 74.9957 1084.94 5.42101e-20 74.9976 1189.97 0 74.9987 1294.98 0
74.9992 1400 1.06882e-15 74.9994 -385.123 1.35525e-20 125.208 -467.393 0 150.013
-385.123 1.35525e-20 150.066 -280.139 0 133.803 -280.142 5.42101e-20 150.071 -175.117
0 150.111 -175.127 2.71051e-20 112.607 -175.132 8.47033e-21 76.5976 -700 0
150 -594.998 0 149.999 -489.995 0 149.999 -173 -8.47033e-22 75.0666
-43.8386 5.42101e-20 82.1741 -61.7019 4.33681e-19 93.8719 -43.8344 0 93.8496 -43.8397
0 84.47 34.9672 8.67362e-19 75.1266 34.9631 6.07153e-17 76.3154 36.5996 0
76.3272 36.5972 0 75.1603 769.851 1.94072e-16 93.7353 769.91 4.87891e-17 112.484
822.388 2.1684e-19 112.488 822.424 0 75.0203 769.938 0 75.0374 874.89
-1.51843e-15 112.491 874.931 0 149.992 979.943 -5.42101e-20 149.996 1084.96 0
149.998 1189.97 0 149.999 1294.99 1.35525e-20 149.999 1400 3.13531e-15 150
-490.027 -1.69407e-21 191.871 -550.997 0 225.02 -490.052 0 225.049 -385.109
0 225.056 -280.111 0 225.088 -175.063 0 225.071 -175.095 -1.04734e-15
187.6 -700 1.69407e-21 225 -594.998 0 225 -69.9883 1.35525e-20 149.988
-69.9918 1.15912e-15 187.493 -17.4927 -2.71051e-20 187.494 -17.4935 -2.71051e-20 187.264 -69.8343
0 149.989 34.9964 -8.67362e-19 150.059 34.9742 2.328e-15 168.92 61.2353 4.33681e-19
168.925 61.2356 0 150.177 140.007 -2.1684e-19 150.162 140.005 2.2031e-16 168.912
166.254 0 168.906 166.255 0 150.151 245.001 0 150.163 245.001
-8.48063e-16 168.916 271.251 2.1684e-19 168.914 271.251 0 150.173 350 4.33681e-19
150.176 350 -7.54822e-16 168.91 376.25 0 168.911 376.25 0 150.177
455 -4.33681e-19 150.176 455 1.86136e-15 168.909 481.25 2.1684e-19 168.911 481.25
-4.33681e-19 150.177 560 0 150.178 559.999 1.82363e-16 168.913 586.249 0
168.917 586.25 -2.1684e-19 150.182 665.03 0 150.193 665.023 9.37618e-16 168.922
691.243 2.1684e-19 168.722 691.248 2.1684e-19 149.967 822.435 -1.0842e-19 149.988 769.955
1.63931e-15 149.984 769.97 1.98474e-15 187.486 822.458 0 187.49 874.953 -1.11022e-15
187.492 874.965 0 224.995 979.965 -5.42101e-20 224.997 1084.97 0 224.999
1189.98 0 224.999 1294.99 1.35525e-20 225 1400 5.69857e-15 225 -557.446
-1.69407e-21 300 -490.046 0 300 -385.098 0 300 -280.093 4.33681e-19
300 -175.043 0 300 -76.1356 -9.48677e-20 300 -70.9141 1.35525e-20 224.996
-122.548 1.52656e-15 225.065 -700 7.74253e-15 300 -594.999 -3.38813e-21 300 -69.994
0 224.995 -69.9962 0 300 -69.9956 0 262.498 -66.9054 -1.35525e-20
262.501 -69.5321 1.35525e-20 224.996 34.987 -1.35525e-20 225.11 34.9914 0 245.756
48.6354 6.77626e-21 262.555 87.5011 -2.71051e-20 262.555 87.5003 0 225.111 140.003
0 225.108 140.002 4.23766e-15 262.554 192.502 1.0842e-19 262.552 192.502 -1.0842e-19
225.104 245.001 0 225.099 245.001 4.05719e-15 262.55 297.501 0 262.548
297.501 1.0842e-19 225.096 350 0 225.095 350 4.93019e-15 262.548 402.5
-1.0842e-19 262.547 402.5 0 225.094 454.999 0 225.095 454.999 3.44917e-15
262.547 507.498 -1.0842e-19 262.548 507.499 0 225.095 559.998 0 225.097
559.997 -2.99446e-15 262.549 612.495 -1.0842e-19 262.55 612.497 0 225.1 665.007
0 225.1 664.999 -1.53902e-15 262.55 717.488 0 262.493 717.486 0
224.987 874.976 5.42101e-20 300 822.468 -1.0842e-19 224.992 769.978 1.0842e-19 224.99
769.984 2.22619e-15 262.494 769.984 -5.42101e-20 300 979.974 0 300 1084.98
0 300 1189.98 0 300 1294.99 0 300 1400 0
300 35.0007 1.0842e-19 -150.05 48.1118 -4.33681e-19 -131.431 61.2412 0 -131.442
61.2454 -8.16187e-16 -150.132 113.757 1.61373e-15 -150.161 113.759 0 -131.483 126.884
0 -131.48 36.6261 0 -76.2272 34.9816 0 -76.238 218.752 -3.57353e-16
-150.144 218.752 0 -131.448 231.876 0 -131.44 323.75 1.03563e-15 -150.139
323.75 0 -131.444 336.875 0 -131.438 428.75 -4.93529e-16 -150.139 428.75
0 -131.444 441.875 0 -131.438 533.75 7.76722e-16 -150.139 533.75 -4.33681e-19
-131.444 546.875 0 -131.438 638.758 3.45644e-16 -150.146 638.763 0 -131.452
651.896 0 -131.45 743.79 2.27682e-16 -150.061 743.801 0 -131.328 769.993
1.11586e-15 -93.8109 743.802 -4.33681e-19 -93.8571 743.703 0 -75.0596 -56.9292 0
-75.094 -56.9379 0 -65.7339 33.3342 -4.51028e-17 -75.0811 33.3312 0 -73.9207
-66.6946 -1.14465e-16 -1.1662 -66.7666 0 -2.34209 -70.0751 2.71051e-20 -2.34396 140.61
-6.28085e-16 -4.68798 140.61 0 -9.376 127.471 0 -9.37901 127.406 0
-0.00361664 147.088 5.84165e-17 -2.34381 147.091 1.69407e-21 -4.68759 743.677 -2.1684e-19 -56.2792
769.679 -1.47712e-15 -18.7503 743.335 -1.0842e-19 -18.7499 743.292 0 -0.00040476 -70.0909
[...]
POINT_DATA 7981
FIELD attributes 1
U 3 7981 float
20.0006 0.000778249 -5.41444e-15 20.0001 0.000134845 2.44228e-15 20 0 0 19.9999 0.000784399
-0.00220474 20.0031 0.0017908 -1.35235e-15 20 0.00181413 -0.00715761 20.011 0.00312379 2.70776e-15
20.002 0.0031818 -0.0206685 20.0361 0.00519859 1.37655e-15 20.0143 0.00546673 -0.0593702 20.1088
0.00830618 2.71568e-15 20.0593 0.00879486 -0.158191 20.3024 0.0127959 -2.72177e-15 20.0969 0.0112593
-0.248751 20.2178 0.0146084 -0.326112 20.6337 0.0169528 0 20.386 0.0193495 -0.437907
20.6282 0.0229373 -0.384925 20.6608 0.0179052 -0.147676 20.8187 0.0176301 0 20.817
0.0187207 -0.124576 20.94 0.0170561 -0.0689391 20.9646 0.0136037 -0.0271477 20.9655 0.0133516
-4.4247e-19 20.9381 0.0161511 2.83797e-15 20.9503 0.00976819 -0.0115033 20.939 0.00634235 -0.00521471
20.948 0.00673123 5.66903e-15 20.9567 0.00997868 -2.83839e-15 20.9355 0.00416671 -0.00179859 20.9323
0.00253573 0.00218628 20.9407 0.00300823 -5.66968e-15 20.9443 0.004592 2.83426e-15 20.9271 0.00121542
0.00782045 20.9185 0.000119978 0.0171054 20.9249 0.000628464 -9.88384e-19 20.9349 0.00173672 -3.13557e-18
20.9027 -0.000842044 0.0323819 20.8718 -0.00169555 0.0560639 20.8733 -0.00111851 0 20.9068
-0.00035546 -2.83275e-15 20.8148 -0.00235436 0.0875343 20.7215 -0.00285272 0.124545 20.7241 -0.00213492
-5.21782e-18 20.8147 -0.0016926 -2.80769e-15 20.3632 -0.00298965 -6.63055e-21 20.6032 -0.00260345 3.73668e-15
20.6209 -0.00309983 0.134675 20.6006 -0.00270762 0.303397 20.4229 -0.0023703 0.267465 20.3096
-0.00272496 0.153221 20.2359 -0.00267659 1.36692e-15 20.2151 -0.00292631 0.0664257 20.2077 -0.00241453
4.8324e-19 20.1942 -0.00269027 0.0333935 20.1976 -0.00227028 -1.36654e-15 20.1854 -0.00238945 0.0134005
20.1947 -0.00222018 0 20.188 -0.00240119 0.00026532 20.1934 -0.00263473 -0.00628926 20.195
-0.00220666 -0.0111471 20 0 0 19.998 0.00079917 -0.00310791 19.9921 0.00186681
-0.0100495 19.9772 0.00333881 -0.0306941 19.9443 0.00607978 -0.0950147 19.8892 0.0106695 -0.281685
20.0007 0.00983938 -0.244502 20.0276 0.0126113 -0.352842 20.1214 0.0175259 -0.529433 20.3431
0.0250563 -0.692533 20.854 0.0246037 -0.275696 20.6867 0.0333497 -0.766282 20.9007 0.0379722
-0.741194 21.0514 0.0390144 -0.560047 21.172 0.0345468 -0.204715 21.1515 0.0297611 -0.0974509
21.0882 0.023453 -0.0618231 20.9943 0.016508 -0.0479774 20.9859 0.0219243 -0.13312 21.0111
0.0141114 -0.0321596 20.9921 0.0107875 -0.0219695 20.981 0.00851147 -0.0178104 20.9424 0.00723351
-0.00542517 20.9623 0.0112266 -0.0186592 20.9752 0.00512547 -0.0122026 20.9772 0.00374949 -0.010173
20.9744 0.00291534 -0.00747629 20.9367 0.00334969 0.00489895 20.9388 0.00504767 -0.000183836 20.9764
0.00127854 0.00316519 20.9818 0.000384907 0.0122188 20.9821 -1.25318e-05 0.0258238 20.931 0.00073936
0.0298007 20.9343 0.00188945 0.0133985 20.9897 -0.00116149 0.0678554 20.9991 -0.00193839 0.0998811
20.9938 -0.00227959 0.143479 20.9019 -0.00117135 0.107331 20.9231 -0.000214626 0.058957 20.9683
-0.00342003 0.273357 20.9469 -0.00422537 0.362176 20.8481 -0.00426352 0.426596 20.7488 -0.00259209
0.260327 20.8511 -0.00194255 0.177535 20.6011 -0.00459188 0.496262 20.3648 -0.00446682 0.393127
20.246 -0.00419655 0.257115 20.1159 -0.00808987 0.318903 20.1121 -0.00842484 0.110605 20.126
-0.00808558 -0.00227729 20.1302 -0.00783554 -0.0670843 20.1346 -0.00798824 -0.0964984 20.1377 -0.00823637
-0.104914 20 0 0 19.996 0.000814235 -0.00223079 19.9836 0.00191866 -0.00708889
19.9468 0.00351081 -0.0228434 19.8364 0.00669461 -0.0735784 19.5252 0.0137132 -0.305549 19.7334
0.0127936 -0.366114 19.8753 0.0151393 -0.484247 19.644 0.0174194 -0.6198 19.7796 0.0261206
-1.02429 19.8464 0.0321316 -1.23398 19.9842 0.0280437 -1.0274 19.9265 0.0223781 -0.811911
20.8032 0.0820305 -1.93741 20.6814 0.0609291 -1.47878 20.6786 0.0766342 -1.9111 21.662
0.0971625 -0.0520404 21.4791 0.0828978 0.0774062 21.3034 0.0656771 0.0873056 21.209 0.0452877
-0.00769447 21.3798 0.0612819 -0.157971 20.9793 0.0168166 -0.011988 20.971 0.0124526 -0.0293975
20.9646 0.00984644 -0.0376301 20.936 0.0117146 -0.00497796 20.9549 0.0156723 0.00485928 20.9597
3.35073e-05 -0.0600149 20.9622 -0.00190936 -0.0651018 20.9619 -0.0017602 -0.0611871 20.9228 0.00322216
-0.0167032 20.9219 0.00475909 -0.0164336 20.974 -0.00449186 -0.056165 20.979 -0.0056805 -0.057803
20.9828 -0.00551766 -0.046973 20.9411 -0.00153304 0.0043 20.934 -0.000418036 -0.00595187 21.039
-0.0082748 0.0135127 21.0568 -0.00934824 0.024676 21.0727 -0.00917912 0.0531207 21.0036 -0.00468178
0.106211 20.9815 -0.00386208 0.0669759 21.237 -0.0122812 0.366803 21.2856 -0.0133409 0.47093
21.279 -0.012609 0.630155 21.0566 -0.00835266 0.557502 21.0765 -0.00740267 0.37292 20.6575
-0.0110068 1.25275 20.4155 -0.020581 1.69187 19.8383 -0.0230184 0.963929 20.2534 -0.00826173
0.580298 20.5915 -0.00829433 0.882487 19.8054 -0.0201541 0.486196 17.6364 -0.0290103 0.860275
18.3062 5.30833e-05 0.362657 18.4628 9.55811e-06 0.195574 18.5371 7.16211e-05 0.0863898 18.5756
-7.3416e-05 0.0280718 18.5889 -9.25475e-05 0.00510168 20 0 0 19.9952 0.000823742
-0.000151276 19.9799 0.0019494 -0.000379971 19.9322 0.00360153 -0.000682323 19.7769 0.00701229 -0.00137772
19.2054 0.0151974 -0.0027082 19.2192 0.0157095 -0.226972 19.1626 0.0203474 -0.69246 19.2049
0.0200642 -0.68598 18.9767 0.0184349 -0.361837 18.7512 0.0403155 -2.01768 18.7927 0.0367665
-1.7837 18.4307 0.0390214 -2.10064 18.4276 0.0397128 -2.14986 19.2399 0.198092 -5.92097
19.178 0.185161 -5.8721 18.3535 0.206197 -5.55907 19.3898 0.187691 -5.85742 10.1475
-0.039648 3.70638 4.07645 0.0553536 2.88475 9.84045 0.0290352 1.62594 16.9739 -0.0414252
1.69007 16.1691 -0.0622841 3.13118 12.0357 0.0235029 1.01412 10.1111 0.0682467 -0.244938
16.7444 0.0114908 -0.0505628 17.0278 0.0112175 -0.0489569 17.1673 0.0113778 -0.0469077 17.2537
0.0115051 -0.0446344 17.2919 0.0115358 -0.0443237 20 0 0 19.996 0.000825794
0.00195639 19.9835 0.00194871 0.00640756 19.9464 0.00357535 0.0216267 19.8355 0.006861 0.0711643
19.5231 0.0142613 0.300557 19.219 0.0160488 0.221381 18.75 0.0216037 0.481694 18.4202
0.0243242 0.530229 18.1482 0.0252778 0.423792 18.1789 0.024227 -0.00275447 9.91253 0.0511277
0.0332322 9.69377 0.0515523 0.8528 7.65188 0.0539982 1.08579 7.2428 0.0547947 0.659409
7.43526 0.0548228 0.0501396 -7.06294 -5.53977 1.8038 -6.67485 -5.5845 -0.385499 -3.75599
-5.82085 -0.446949 -3.41707 -6.96477 0.82529 -3.66718 -6.12694 1.91935 -0.234766 0.1581
-2.70906 5.43281 0.0411515 -3.46784 10.8387 0.0243317 -2.03661 5.78957 0.0978031 -0.337985
-0.914793 0.201909 -0.62405 12.9292 0.0180457 -1.342 18.0285 -0.0263362 -0.940904 18.48
-0.000768057 -0.419803 18.6489 -0.000395605 -0.250602 18.7299 -0.000160433 -0.139367 18.7798 3.88083e-05
-0.0793831 18.8014 0.000121104 -0.0568966 19.9665 0.00349398 0.0270699 19.9885 0.00225123 0.0138931
19.9764 0.00345363 0.029769 19.9191 0.0064665 0.0885977 19.9422 0.00635739 0.0934234 19.8852
0.0112871 0.278259 19.7294 0.0134974 0.361572 19.5315 0.0142302 0.303048 20 0
0 19.9979 0.0008202 0.00289316 19.9918 0.00192088 0.00953147 19.5101 0.0145398 0.315909
19.0538 0.0563077 2.32269 19.3002 0.0405905 1.5955 19.3394 0.0513386 1.96325 19.1351
0.0558957 2.24689 19.2225 0.275687 5.88728 19.2264 0.2786 5.89265 19.346 0.28526
5.86009 19.354 0.284128 5.87341 19.7376 -0.0445806 -2.52591 20.405 -0.0214389 -1.73926
19.8811 -0.0203836 -1.00906 17.4542 -0.0373321 -1.78686 16.7107 -0.0594639 -3.29481 19.847
-0.0175622 -0.538961 20.1205 -0.00761982 -0.346523 20.1239 -0.00668574 -0.121453 20.139 -0.00621649
-0.00961448 20.1431 -0.00599145 0.0538738 20.1486 -0.00600464 0.0822617 20.1528 -0.00603861 0.0893406
19.9961 0.00189938 0.00805149 19.9997 0.00126045 0.00408967 19.9996 0.00188235 0.0068788 20.0012
0.0033306 0.0200738 20.0113 0.00576841 0.058818 20.0552 0.00949521 0.155404 19.9957 0.0104811
0.241454 20 0 0 19.9998 0.000811459 0.002076 19.9153 0.0239433 0.808189
20.1135 0.0189412 0.523722 20.3309 0.0222762 0.708461 20.3305 0.0224163 0.710627 19.9156
0.0239761 0.809466 20.6624 0.0625185 1.35312 20.6964 0.064398 0.998291 20.9316 0.0572412
0.935007 21.0118 0.0768222 1.25368 21.4116 0.0697783 0.185755 21.27 0.0460336 0.213967
21.1846 0.0340426 0.0720859 21.2409 0.049826 0.0149587 20.9715 0.0143975 -0.0117202 20.988
0.00812316 0.012177 20.9648 0.00400145 0.0111646 20.9502 0.0102749 -0.00121534 20.9331 0.00282885
0.0124195 20.9455 -0.00342002 0.0133356 20.9455 -0.00524103 0.012996 20.9344 0.00131631 0.0131422
20.9483 -0.00153287 0.00195197 20.9533 -0.00852482 0.00115524 20.9593 -0.00937837 -0.00899373 20.9572
-0.00225307 -0.00865846 21.0065 -0.00368105 -0.0756432 20.9917 -0.0107802 -0.0723135 21.0065 -0.0110666
-0.111983 21.0328 -0.00432123 -0.11989 21.1087 -0.00708205 -0.424489 21.0232 -0.012563 -0.354674
20.9843 -0.0132338 -0.486862 21.0788 -0.00826421 -0.621379 20.2483 -0.0082045 -0.61012 20.5804
-0.00646115 -0.915917 20.5986 -0.00458185 -0.513078 20.3633 -0.00438322 -0.407408 20.2476 -0.00396888
-0.272046 20.3099 -0.00180222 -0.158841 20.216 -0.00245884 -0.0711374 20.1956 -0.00218829 -0.039628
20.1868 -0.00196082 -0.0206975 20.189 -0.00194486 -0.00761769 20.1944 -0.00198779 -0.00140034 20.0013
0.00118503 4.86091e-16 20.0025 0.00186301 1.35394e-15 20.0102 0.00328628 -1.05463e-18 20.0327 0.0054866
1.35419e-15 20.1067 0.00911707 0 20.2737 0.0134525 0 20.2066 0.0156888 0.313602
20.0918 0.0123008 0.246888 20.0001 0.000139966 -2.44228e-15 20.0005 0.000807293 2.56813e-18 20.2086
0.0157492 0.314791 20.2841 0.0137218 0 20.2917 0.0143554 0.144496 20.2992 0.014513
0.146346 20.2102 0.0157922 0.315466 20.6227 0.026184 0.411852 20.6158 0.0230046 0.288014
20.6602 0.0208766 0.177374 20.8028 0.0221848 0.149244 20.8565 0.0285171 0.310434 20.9916
0.0250794 0.150711 20.9348 0.02001 0.0797352 20.9717 0.0156241 0.0310192 21.0063 0.0185362
0.0528091 20.9756 0.0124653 0.0210323 20.96 0.0112928 0.0149031 20.9489 0.00748686 0.00828305
20.955 0.00802713 0.00762746 20.9506 0.00558396 0.00225525 20.9447 0.00499982 0.00471094 20.9421
0.00316349 0.000731174 20.9491 0.0037494 -0.00289765 20.9482 0.00226205 -0.0117182 20.9381 0.00168294
-0.0049712 20.931 0.000525283 -0.0146244 20.9467 0.00112809 -0.0289473 20.9405 0.000182657 -0.0602064
20.9161 -0.000410846 -0.0310331 20.8853 -0.00108788 -0.0564897 20.92 -0.000575044 -0.112534 20.8668
-0.00113443 -0.187568 20.8265 -0.00152793 -0.0898464 20.73 -0.00184769 -0.127299 20.7599 -0.0016252
-0.271647 20.3636 -0.00267555 -5.76061e-17 20.4225 -0.00132961 -0.274346 20.6053 -0.0017784 -0.311827
20.6262 -0.00217183 -0.136533 20.6009 -0.00186704 -7.42925e-15 20.2374 -0.00227916 4.11669e-15 20.2098
-0.00194004 5.46813e-15 20.1997 -0.00170745 1.36894e-15 20.1963 -0.00156515 -5.46647e-15 20.1961 -0.00150283
0.0116004 20.6824 0.0552799 -1.32308 20.9453 0.088186 -1.96745 21.2282 0.0972726 -1.80924
21.0175 0.0650269 -1.20063 21.4567 0.0726043 -0.493098 21.9026 0.118465 -0.564783 21.8539
0.113551 -0.238622 19.3994 0.20459 -5.86915 19.2664 0.21036 -5.90777 20.9898 0.0215235
0.0176102 21.0089 0.0260329 0.0237374 20.9911 0.0210023 0.0040686 20.9221 0.00639011 -0.015433
20.9576 0.00222708 -0.0581507 20.9595 0.000273902 -0.0645507 20.9288 0.000694666 -0.0125111 20.9685
-0.00338883 -0.0604736 20.9722 -0.00469091 -0.0636914 20.9642 -0.00311005 0.039068 21.0141 -0.00760305
-0.0135243 21.0273 -0.00860786 -0.00773845 21.0574 -0.00646963 0.248306 21.1732 -0.0112097 0.208793
21.2133 -0.0123669 0.268932 20.8235 -0.00822104 0.963628 20.9078 -0.0115531 1.26969 19.5577
-0.0452263 2.45141 19.8106 -0.0490864 2.59619 15.74 -0.0734892 3.45453 18.7115 0.0437117
-2.24162 18.4031 0.0452534 -2.54433 19.1249 0.202224 -5.97177 19.0842 0.192418 -6.01645
7.21769 0.0547965 -0.556336 7.61812 0.0538717 -0.988804 9.66816 0.0513245 -0.783947 -6.50783
-4.21001 3.77734 -7.16721 -3.19239 5.10447 -11.319 -2.77569 3.22475 -11.6337 -4.48182
1.33599 -3.24892 -4.83634 2.76672 -3.62946 -4.09618 3.85868 8.35638 -0.0366011 3.76662
-1.23647 0.176413 1.59459 -5.60721 0.204416 1.14589 -6.7126 0.276853 -0.812991 18.4263
0.0418714 2.08228 18.785 0.0395959 1.76824 18.702 0.0473282 2.22193 18.3966 0.0487567
2.52124 19.1884 0.270809 5.82113 19.0636 0.264019 5.96081 19.0708 0.27387 5.94837
-11.391 -3.75996 -1.42048 -7.06963 -4.20835 -2.75728 19.242 0.29253 5.77315 -4.36528
0.180819 -2.38978 11.2518 -0.0410612 -4.00038 9.64738 -0.037184 -4.19536 16.367 -0.0704923
-3.75093 21.2078 0.118609 1.86783 20.9246 0.103967 2.00929 20.6578 0.0851329 1.93926
21.7039 0.117734 0.0866707 21.8921 0.138328 0.298059 21.9257 0.144747 0.639249 21.4769
0.0844173 0.544126 21.3432 0.0783573 -0.0854353 21.5236 0.0999706 -0.0621336 20.9898 0.0177935
0.000740925 21.0037 0.0223664 -0.0166031 21.0249 0.0285434 -0.0367532 21.0103 0.0209132 -0.0239537
20.9727 0.0111656 0.0280211 20.9802 0.0132486 0.0182853 20.9643 0.000489421 0.0549786 20.9642
0.00102023 0.0583803 20.9626 0.00337535 0.0514338 20.9338 0.0045132 0.010513 20.967 -0.0017478
0.0575201 20.9668 -0.00209512 0.0610891 20.9818 -0.00354423 0.0533733 20.979 -0.00449555 0.0615819
20.975 -0.00308028 0.0582486 20.9418 -0.000807498 0.00881082 20.9924 -0.00392668 0.0449326 20.9875
-0.004836 0.0558046 21.0604 -0.00521019 -0.0194892 21.0457 -0.00600776 0.00401507 21.0301 -0.00474395
0.0105978 20.9856 -0.00317929 -0.0451404 21.1007 -0.0059171 -0.0649301 21.0813 -0.00664873 -0.0325875
21.2807 -0.00832546 -0.438256 21.2601 -0.00877965 -0.324994 21.217 -0.00742752 -0.250952 21.0928
-0.00603014 -0.283675 20.0191 -0.0496221 -2.72851 21.3035 -0.00882194 -0.725274 21.325 -0.00942578
-0.558008 20.6357 -0.00948889 -1.29672 20.8856 -0.00995074 -1.32969 20.8135 -0.00476658 -1.01233
20.2826 0.0573739 -1.70349 20.373 0.0457822 -1.35747 18.7201 0.0444421 -2.26869 20.2775
0.0580385 -1.72322 19.2926 0.0327597 -1.43371 18.8181 0.0527547 -2.57666 19.1533 0.0509672
-2.2628 19.3577 0.0467076 -1.97659 19.1484 0.211551 -5.91637 18.561 0.0230883 -0.593049
18.8293 0.0225771 -0.743537 18.2585 0.0243652 -0.474283 18.9815 0.0264114 -1.10781 18.4892
0.0281291 -1.20647 18.1915 0.032779 -1.67381 18.039 0.0392799 -2.32246 18.1448 0.024848
-0.429631 10.2706 0.0497679 -1.38472 13.1237 0.0429261 -0.840198 13.0101 0.0434063 0.0152382
18.6891 0.0966932 -3.95704 18.6885 0.0973046 -3.9648 18.8373 0.092814 -3.60391 18.9671
0.0859983 -3.27539 18.9219 0.0664479 -2.90915 18.6761 0.0730242 -3.52898 18.6788 0.0740173
-3.55413 17.4259 0.0497075 -3.59288 17.5024 0.0412616 -2.66087 16.5975 0.0428714 -3.05099
16.2322 0.0472409 -3.92205 16.2645 0.0529984 -4.83479 16.9626 0.0528983 -4.31803 17.3678
0.0516201 -3.839 -2.69237 0.157209 -2.25785 -2.60718 0.399937 -3.56125 -4.55029 0.204085
-3.35478 -5.20414 -0.0824257 -2.0839 -5.89403 -0.834639 8.22388 -3.87639 -1.2924 9.2664
-3.40957 -1.19389 8.94318 -3.18702 -0.981441 8.35747 -4.79981 -0.436639 7.26275 11.396
-0.0955384 0.678536 6.3207 -0.170845 0.291431 7.85204 -0.144526 1.82997 13.0713 -0.0831365
2.14332 -3.80879 -0.0060971 1.328 0.0427682 -0.0727369 1.86726 -1.11041 -0.110695 0.0474292
-4.89777 -0.0576758 -0.599204 18.5624 0.023826 0.585857 13.1321 0.0432913 0.780081 13.1461
0.0432782 0.867446 10.3113 0.0502065 1.44039 10.2458 0.050349 1.37809 19.2016 0.0211201
0.678759 18.8283 0.0235744 0.735424 18.9767 0.0281405 1.09753 18.0394 0.0418742 2.3019
18.1921 0.0346745 1.6583 18.4884 0.0296247 1.19502 -8.95479 -0.594427 0.360019 -8.64651
-0.698112 1.09235 -8.9631 -0.754442 1.54709 -11.2924 -1.58203 0.886252 -11.5394 -1.51249
0.432127 19.2818 0.0355665 1.42283 18.803 0.0575688 2.55642 19.8303 0.0344759 1.22851
19.9702 0.0294913 1.02522 19.9142 0.0239705 0.809648 19.8281 0.0344469 1.22807 19.766
0.0278416 1.01912 20.5412 0.0574323 1.33768 20.2628 0.0585427 1.68969 20.3557 0.0496357
1.31405 18.9531 0.271758 5.96692 19.0082 0.249646 5.71462 19.2012 0.272037 5.82196
19.8289 0.0345284 1.23064 20.2535 0.0594411 1.72746 20.7664 0.18828 3.55634 20.8804
0.163993 3.0722 20.8409 0.194601 3.59963 22.0158 0.246844 2.70994 21.9755 0.223472
2.44701 22.3605 0.250062 2.00195 22.8841 0.391608 2.52195 22.6289 0.36262 2.96431
22.2493 0.315534 3.23033 22.0039 0.194237 -0.281089 21.614 0.145015 -0.380933 21.5171
0.198815 -0.565398 21.7839 0.251409 -0.624042 22.1197 0.296919 -0.552539 20.9314 0.0388711
-0.0723654 20.9408 0.0530967 -0.128136 20.9954 0.0717945 -0.211633 21.145 0.0694215 -0.237534
21.0554 0.0478423 -0.148717 20.9609 0.00893887 0.0509728 20.958 0.00392482 0.0735867 20.8687
-0.0126987 0.220199 20.8607 -0.0134846 0.223069 20.8761 -0.00987058 0.192106 20.8384 -0.0162453
0.268605 20.8302 -0.0169802 0.279009 20.8505 -0.0153876 0.256908 20.9561 -0.00159909 0.104938
20.956 -0.00446273 0.113609 20.9575 -0.0119315 0.132481 20.958 -0.0125789 0.135762 20.7663
-0.0135565 0.293308 20.753 -0.0144399 0.307763 20.7828 -0.0151674 0.289866 20.7055 -0.0109347
0.298312 20.6893 -0.011025 0.313656 20.7275 -0.0115723 0.297828 20.9596 -0.0131116 0.139932
20.9598 -0.0129072 0.140177 20.962 -0.0133286 0.136346 20.9646 -0.0130179 0.134419 20.5879
-0.0118552 0.290276 20.5599 -0.0116691 0.307392 20.6107 -0.0117189 0.294195 20.5234 -0.0141555
0.274283 20.4863 -0.0138677 0.292087 20.5438 -0.0132725 0.28055 20.9734 -0.0124953 0.126308
20.98 -0.0124515 0.119556 21.0308 -0.0126353 0.0774835 21.0522 -0.0129785 0.0596144 20.471
-0.0173968 0.215894 20.4115 -0.0177438 0.239171 20.4721 -0.0170078 0.233941 20.5186 -0.0203898
0.12916 20.4374 -0.0204877 0.163108 20.4917 -0.0192831 0.165653 21.1126 -0.0139349 0.00661584
21.1541 -0.0145769 -0.0329499 12.2162 -0.0642982 -1.25095 17.7747 -0.0822636 -1.5713 18.2859
-0.0826947 -2.33768 13.9965 -0.0695625 -2.67345 21.4157 -0.0188625 -0.377494 21.4925 -0.019878
-0.557879 20.9674 -0.0280608 -0.446306 20.858 -0.0290522 -0.290418 20.8345 -0.0273863 -0.216576
21.1163 -0.0322096 -1.70854 21.1398 -0.0304804 -1.32456 21.5729 -0.022448 -1.15746 21.3601
-0.0231331 -1.46904 20.3966 0.13541 -3.28633 20.9092 0.169511 -3.55349 20.9474 0.130151
-2.77358 20.5511 0.108618 -2.6901 22.3795 0.210714 -1.86975 21.9666 0.186851 -2.39665
22.319 0.259505 -3.08958 22.685 0.290366 -2.79751 22.92 0.308792 -2.34025 21.9231
0.162459 0.321602 22.3065 0.197309 0.0171924 22.6578 0.294802 0.25865 22.3599 0.26655
0.522965 22.0336 0.224447 0.604232 23.1556 0.338033 -1.91701 23.2025 0.34423 -1.40357
22.596 0.223513 -1.21007 21.7012 0.186917 0.646106 21.4426 0.149053 0.563969 21.5391
0.123555 0.387816 21.0225 0.0494092 0.124775 21.1004 0.0660929 0.216163 20.9681 0.0605922
0.18441 20.9238 0.0455263 0.100626 20.9186 0.0351948 0.0437547 20.9511 0.0169579 -0.0687881
20.9543 0.0220276 -0.0401277 20.8955 -0.00108672 -0.175188 20.8882 -0.00724916 -0.206664 20.8964
-0.00665196 -0.204779 20.8975 0.0236712 -0.0238433 20.9014 0.0189523 -0.058309 20.9823 0.0374011
0.0528699 20.8884 -0.0109241 -0.232382 20.8952 -0.00915556 -0.22918 20.9497 0.0132279 -0.0903491
20.9498 0.0059973 -0.123602 20.9495 0.00882546 -0.116315 20.8833 -0.0120036 -0.262699 20.8691
-0.0150064 -0.282688 20.8738 -0.0132492 -0.273652 20.9514 -0.00182348 -0.138616 20.9505 -9.79277e-05
-0.136735 20.8378 -0.0140032 -0.287962 20.8163 -0.015558 -0.305364 20.8236 -0.0135999 -0.290865
20.8571 -0.0159705 -0.293382 20.8623 -0.013838 -0.280786 20.95 0.00298086 -0.129735 20.8001
-0.014574 -0.306928 20.8089 -0.0129696 -0.293029 20.9526 -0.00266768 -0.140135 20.9546 -0.00349874
-0.146262 20.954 -0.00355298 -0.145224 20.7743 -0.011777 -0.298219 20.7424 -0.012427 -0.314527
20.7532 -0.011022 -0.300458 20.9565 -0.00425804 -0.141605 20.9559 -0.00422401 -0.143108 20.6806
-0.0106238 -0.299653 20.6366 -0.0114269 -0.314326 20.6548 -0.0105481 -0.298317 20.7179 -0.0116203
-0.316006 20.7301 -0.0105993 -0.300864 20.955 -0.00343014 -0.145841 20.6076 -0.0114811 -0.312108
20.6285 -0.0107845 -0.295237 20.9579 -0.00435636 -0.13927 20.9687 -0.00601696 -0.124068 20.964
-0.00528373 -0.130804 20.577 -0.0125091 -0.285056 20.5217 -0.0140685 -0.296058 20.5516 -0.0137067
-0.277599 21.0078 -0.00847432 -0.0846408 20.9943 -0.00793415 -0.0969244 20.4873 -0.0163635 -0.251274
20.4254 -0.0178029 -0.260156 20.4721 -0.0171338 -0.239918 20.4943 -0.015286 -0.288007 20.528
-0.0146909 -0.269671 20.975 -0.00674231 -0.116094 20.409 -0.0186037 -0.246694 20.4611 -0.0177626