# Force coefficients
# liftDir     : (0.000000e+00 0.000000e+00 1.000000e+00)
# dragDir     : (1.000000e+00 0.000000e+00 0.000000e+00)
# pitchAxis   : (0.000000e+00 1.000000e+00 0.000000e+00)
# magUInf     : 2.000000e+01
# lRef        : 1.420000e+00
# Aref        : 7.500000e-01
# CofR        : (7.200000e-01 0.000000e+00 0.000000e+00)
# Time        	Cm            	Cd            	Cl            	Cl(f)         	Cl(r)         
0             	1.316345e+02	4.542574e+02	-3.341283e-01	1.314674e+02	-1.318015e+02
1             	8.487546e+04	3.634519e+04	-1.447896e+02	8.480307e+04	-8.494786e+04
2             	1.144647e+05	3.540663e+04	-2.539080e+02	1.143378e+05	-1.145917e+05
3             	8.507870e+04	2.927442e+04	-2.091341e+02	8.497413e+04	-8.518327e+04
4             	3.793090e+04	2.755842e+04	-1.103564e+02	3.787572e+04	-3.798607e+04
5             	-8.559343e+03	2.669459e+04	2.076895e+01	-8.548959e+03	8.569728e+03
6             	-1.686872e+04	2.530996e+04	2.204451e+01	-1.685770e+04	1.687974e+04
7             	-3.642538e+04	2.344756e+04	8.983603e+01	-3.638046e+04	3.647030e+04
8             	-5.476043e+04	2.137860e+04	1.215368e+02	-5.469966e+04	5.482120e+04
9             	-9.830242e+04	1.913484e+04	2.153513e+02	-9.819474e+04	9.841010e+04
10            	-1.425068e+05	1.695203e+04	3.216572e+02	-1.423460e+05	1.426676e+05
11            	-1.571209e+05	1.494582e+04	3.598424e+02	-1.569410e+05	1.573008e+05
12            	-1.575835e+05	1.326948e+04	3.611252e+02	-1.574030e+05	1.577641e+05
13            	-1.433264e+05	1.189254e+04	3.272837e+02	-1.431628e+05	1.434900e+05
14            	-1.180711e+05	1.082263e+04	2.609754e+02	-1.179406e+05	1.182016e+05
15            	-9.231031e+04	1.007828e+04	1.906208e+02	-9.221500e+04	9.240562e+04
16            	-7.309275e+04	9.612260e+03	1.383599e+02	-7.302357e+04	7.316193e+04
17            	-5.949338e+04	9.299519e+03	1.063456e+02	-5.944021e+04	5.954655e+04
18            	-5.008573e+04	9.067497e+03	8.748675e+01	-5.004198e+04	5.012947e+04
19            	-4.273437e+04	8.882639e+03	7.608682e+01	-4.269632e+04	4.277241e+04
20            	-3.618108e+04	8.753407e+03	6.606981e+01	-3.614805e+04	3.621412e+04
21            	-3.127932e+04	8.642441e+03	5.557556e+01	-3.125153e+04	3.130710e+04
22            	-2.951741e+04	8.541223e+03	5.148009e+01	-2.949167e+04	2.954315e+04
23            	-2.953825e+04	8.468488e+03	5.209433e+01	-2.951221e+04	2.956430e+04
24            	-3.092712e+04	8.385142e+03	5.613162e+01	-3.089905e+04	3.095519e+04
25            	-3.347820e+04	8.300213e+03	6.515078e+01	-3.344562e+04	3.351077e+04
26            	-3.694466e+04	8.237874e+03	7.878654e+01	-3.690527e+04	3.698405e+04
27            	-4.061852e+04	8.196547e+03	9.201922e+01	-4.057251e+04	4.066453e+04
28            	-4.490987e+04	8.171632e+03	1.040137e+02	-4.485787e+04	4.496188e+04
29            	-4.990409e+04	8.156469e+03	1.162852e+02	-4.984595e+04	4.996224e+04
30            	-5.528021e+04	8.142495e+03	1.298438e+02	-5.521528e+04	5.534513e+04
31            	-6.014252e+04	8.129235e+03	1.425519e+02	-6.007124e+04	6.021379e+04
32            	-6.380751e+04	8.116676e+03	1.510352e+02	-6.373200e+04	6.388303e+04
33            	-6.664812e+04	8.100860e+03	1.558374e+02	-6.657020e+04	6.672604e+04
34            	-6.967656e+04	8.083055e+03	1.612208e+02	-6.959595e+04	6.975718e+04
35            	-7.374056e+04	8.065584e+03	1.709980e+02	-7.365506e+04	7.382606e+04
36            	-7.869853e+04	8.050708e+03	1.841150e+02	-7.860647e+04	7.879059e+04
37            	-8.403978e+04	8.035802e+03	1.981309e+02	-8.394071e+04	8.413884e+04
38            	-8.924810e+04	8.021002e+03	2.112603e+02	-8.914247e+04	8.935373e+04
39            	-9.396957e+04	8.008112e+03	2.223093e+02	-9.385841e+04	9.408072e+04
40            	-9.813094e+04	7.997814e+03	2.310004e+02	-9.801544e+04	9.824644e+04
41            	-1.017348e+05	7.994067e+03	2.371366e+02	-1.016162e+05	1.018533e+05
42            	-1.051350e+05	8.003643e+03	2.407525e+02	-1.050146e+05	1.052553e+05
43            	-1.069211e+05	8.020820e+03	2.397786e+02	-1.068012e+05	1.070409e+05
44            	-1.085944e+05	8.044364e+03	2.382217e+02	-1.084753e+05	1.087135e+05
45            	-1.100334e+05	8.067047e+03	2.367788e+02	-1.099150e+05	1.101517e+05
46            	-1.115199e+05	8.087442e+03	2.372547e+02	-1.114012e+05	1.116385e+05
47            	-1.133075e+05	8.105128e+03	2.411530e+02	-1.131869e+05	1.134280e+05
48            	-1.151773e+05	8.123117e+03	2.471785e+02	-1.150537e+05	1.153009e+05
49            	-1.166033e+05	8.147331e+03	2.524268e+02	-1.164770e+05	1.167295e+05
50            	-1.173203e+05	8.182346e+03	2.548043e+02	-1.171929e+05	1.174477e+05
51            	-1.171197e+05	8.220475e+03	2.528296e+02	-1.169933e+05	1.172461e+05
52            	-1.164009e+05	8.256005e+03	2.475891e+02	-1.162771e+05	1.165247e+05
53            	-1.156963e+05	8.286747e+03	2.408657e+02	-1.155759e+05	1.158168e+05
54            	-1.157355e+05	8.311250e+03	2.359925e+02	-1.156175e+05	1.158535e+05
55            	-1.164822e+05	8.332558e+03	2.349006e+02	-1.163648e+05	1.165997e+05
56            	-1.178538e+05	8.353930e+03	2.367473e+02	-1.177354e+05	1.179722e+05
57            	-1.194039e+05	8.378349e+03	2.389698e+02	-1.192844e+05	1.195234e+05
58            	-1.208556e+05	8.406291e+03	2.395662e+02	-1.207359e+05	1.209754e+05
59            	-1.220877e+05	8.437462e+03	2.372501e+02	-1.219691e+05	1.222063e+05
60            	-1.232178e+05	8.470279e+03	2.322794e+02	-1.231017e+05	1.233339e+05
61            	-1.246173e+05	8.503862e+03	2.269367e+02	-1.245039e+05	1.247308e+05
62            	-1.266677e+05	8.537073e+03	2.239148e+02	-1.265558e+05	1.267797e+05
63            	-1.295259e+05	8.569414e+03	2.247766e+02	-1.294135e+05	1.296383e+05
64            	-1.329662e+05	8.601859e+03	2.286061e+02	-1.328519e+05	1.330805e+05
65            	-1.366169e+05	8.634531e+03	2.333127e+02	-1.365002e+05	1.367335e+05
66            	-1.402789e+05	8.667719e+03	2.373289e+02	-1.401602e+05	1.403975e+05
67            	-1.439176e+05	8.701995e+03	2.400958e+02	-1.437976e+05	1.440377e+05
68            	-1.477218e+05	8.737435e+03	2.431193e+02	-1.476002e+05	1.478433e+05
69            	-1.518667e+05	8.773646e+03	2.476908e+02	-1.517429e+05	1.519906e+05
70            	-1.563093e+05	8.810755e+03	2.537721e+02	-1.561824e+05	1.564362e+05
71            	-1.609025e+05	8.847712e+03	2.607018e+02	-1.607722e+05	1.610329e+05
72            	-1.656134e+05	8.883967e+03	2.685330e+02	-1.654791e+05	1.657477e+05
73            	-1.704698e+05	8.920136e+03	2.779363e+02	-1.703308e+05	1.706087e+05
74            	-1.754302e+05	8.956396e+03	2.892862e+02	-1.752855e+05	1.755748e+05
75            	-1.804269e+05	8.993252e+03	3.026672e+02	-1.802755e+05	1.805782e+05
76            	-1.852304e+05	9.030327e+03	3.171747e+02	-1.850718e+05	1.853890e+05
77            	-1.894385e+05	9.066158e+03	3.303858e+02	-1.892734e+05	1.896037e+05
78            	-1.928748e+05	9.097543e+03	3.401934e+02	-1.927047e+05	1.930449e+05
79            	-1.955547e+05	9.122888e+03	3.449672e+02	-1.953822e+05	1.957272e+05
80            	-1.977918e+05	9.141953e+03	3.442836e+02	-1.976197e+05	1.979640e+05
81            	-2.002700e+05	9.154199e+03	3.411763e+02	-2.000994e+05	2.004406e+05
82            	-2.038078e+05	9.160832e+03	3.416349e+02	-2.036370e+05	2.039787e+05
83            	-2.087463e+05	9.164556e+03	3.501065e+02	-2.085713e+05	2.089214e+05
84            	-2.145511e+05	9.168620e+03	3.649433e+02	-2.143687e+05	2.147336e+05
85            	-2.201245e+05	9.176258e+03	3.808591e+02	-2.199341e+05	2.203149e+05
86            	-2.245402e+05	9.185814e+03	3.935231e+02	-2.243434e+05	2.247370e+05
87            	-2.270070e+05	9.192115e+03	3.977870e+02	-2.268081e+05	2.272059e+05
88            	-2.276366e+05	9.191697e+03	3.943463e+02	-2.274394e+05	2.278338e+05
89            	-2.269008e+05	9.184196e+03	3.861655e+02	-2.267077e+05	2.270938e+05
90            	-2.251156e+05	9.171987e+03	3.755674e+02	-2.249278e+05	2.253033e+05
91            	-2.225326e+05	9.157640e+03	3.642400e+02	-2.223505e+05	2.227147e+05
92            	-2.193968e+05	9.141527e+03	3.540884e+02	-2.192198e+05	2.195739e+05
93            	-2.158317e+05	9.125364e+03	3.456899e+02	-2.156589e+05	2.160046e+05
94            	-2.120447e+05	9.109715e+03	3.403003e+02	-2.118745e+05	2.122148e+05
95            	-2.082137e+05	9.094342e+03	3.382458e+02	-2.080446e+05	2.083829e+05
96            	-2.044646e+05	9.081071e+03	3.386842e+02	-2.042953e+05	2.046340e+05
97            	-2.007751e+05	9.071774e+03	3.396059e+02	-2.006053e+05	2.009450e+05
98            	-1.971078e+05	9.065945e+03	3.388951e+02	-1.969383e+05	1.972772e+05
99            	-1.937385e+05	9.063044e+03	3.371253e+02	-1.935699e+05	1.939070e+05
100           	-1.907175e+05	9.060820e+03	3.346470e+02	-1.905502e+05	1.908848e+05
