# vtk DataFile Version 2.0
sampleSurface
ASCII
DATASET POLYDATA
POINTS 7981 float
-594.999 0 -300 -700 0 -300 -700 0 -225 -594.998 0
-225 -489.997 -6.77626e-21 -300 -489.997 0 -224.999 -384.996 1.35525e-20 -300
-384.995 0 -224.999 -279.995 0 -300 -279.993 0 -224.998 -174.995
-2.71051e-20 -300 -174.993 0 -224.997 -69.9955 5.42101e-20 -300 -122.493 2.67332e-15
-224.996 -69.9938 0 -224.998 35.0032 0 -300 -17.494 8.04478e-17 -224.999
35.005 1.0842e-19 -225 35.0036 0 -262.5 87.5027 1.73798e-15 -300 87.5032
0 -262.5 140.003 1.16508e-15 -262.5 192.502 0 -262.499 192.502 4.39069e-15
-300 140.002 0 -300 245.001 -1.02663e-15 -262.499 297.501 0 -262.498
297.501 -9.74372e-16 -300 245.001 1.0842e-19 -300 350 -1.52374e-15 -262.498 402.5
1.0842e-19 -262.498 402.5 -1.22255e-15 -300 350 -1.0842e-19 -300 454.999 -4.20128e-16
-262.498 507.499 1.0842e-19 -262.498 507.498 -2.10064e-15 -300 454.999 0 -300
559.997 -2.85828e-15 -262.498 612.496 -1.0842e-19 -262.499 612.495 1.76096e-15 -300 559.997
-1.0842e-19 -300 664.993 -1.25529e-15 -262.499 717.49 0 -262.5 717.49 -3.43822e-15
-300 664.993 1.0842e-19 -300 874.978 0 -300 769.986 0 -300
769.986 -2.33331e-15 -262.5 769.981 0 -225 822.471 -1.86342e-15 -225.001 874.968
5.42101e-20 -225 979.975 0 -300 979.967 0 -225 1084.98 -2.71051e-20
-300 1084.97 2.71051e-20 -225 1189.98 0 -300 1189.98 0 -225
1294.99 -1.35525e-20 -300 1294.99 0 -225 1400 -2.34379e-15 -225 1400
1.35525e-20 -300 -700 0 -150 -594.998 -6.77626e-21 -150 -489.995 -6.77626e-21
-149.999 -384.992 -1.35525e-20 -149.998 -279.989 0 -149.996 -174.987 -5.47847e-16 -149.992
-174.991 -2.71051e-20 -187.495 -122.491 0 -187.495 -69.9921 -2.36329e-15 -187.496 -17.4925
-1.0842e-19 -187.498 87.5043 9.28402e-16 -225.002 35.0068 -1.89584e-15 -187.502 61.2492 1.59681e-15
-187.541 87.5056 0 -187.513 140.005 -2.00317e-15 -187.513 166.254 2.14629e-15 -187.573
192.503 -2.1684e-19 -187.508 192.502 0 -224.999 140.003 0 -225.001 245.001
-1.26223e-15 -187.505 271.251 -4.81169e-16 -187.566 297.501 0 -187.503 297.501 0
-224.996 245.001 0 -224.998 350 1.95915e-15 -187.502 376.25 5.41884e-16 -187.565
402.5 0 -187.502 402.5 0 -224.996 350 0 -224.996 455
4.35416e-16 -187.502 481.25 1.558e-15 -187.565 507.5 0 -187.503 507.499 -2.1684e-19
-224.996 454.999 2.1684e-19 -224.996 560 -1.05883e-15 -187.504 586.25 8.13368e-16 -187.567
612.5 0 -187.506 612.497 0 -224.998 559.998 0 -224.997 665
2.47415e-16 -187.508 691.256 1.87415e-15 -187.51 717.49 0 -187.501 717.489 0
-225 664.994 0 -224.999 769.975 2.13252e-15 -187.501 822.462 0 -187.501
874.957 -3.33067e-15 -187.501 874.936 0 -150.001 979.946 0 -150.001 1084.96
0 -150.001 1189.97 0 -150 1294.99 -1.35525e-20 -150 1400 2.44353e-15
-150 -700 0 -74.9999 -594.997 0 -74.9997 -489.994 0 -74.9993
-384.989 0 -74.998 -279.98 -2.71051e-20 -74.994 -174.966 -3.5831e-15 -74.9817 -175.042
0 -112.513 -122.487 2.71051e-20 -149.991 -122.538 0 -112.545 -70.0149 1.16226e-15
-131.274 -43.7389 0 -131.241 -43.7648 8.67362e-19 -150.038 -69.9896 -5.42101e-20 -149.992
41.1247 -2.1684e-19 -131.373 35.0001 -1.0842e-19 -145.091 34.9986 0 -131.322 140.008
-2.51535e-16 -131.469 153.13 -5.85469e-16 -131.461 166.257 4.33681e-19 -131.458 166.256 0
-150.154 140.007 0 -150.144 245.001 9.68409e-16 -131.437 258.126 4.30211e-16 -131.439
271.25 4.33681e-19 -131.445 271.251 -4.33681e-19 -150.14 245.001 0 -150.126 350
9.19837e-16 -131.436 363.125 3.62557e-16 -131.438 376.25 4.33681e-19 -131.444 376.25 0
-150.139 350 0 -150.124 455 6.72639e-16 -131.436 468.125 9.52797e-16 -131.438
481.25 0 -131.444 481.25 4.33681e-19 -150.139 455 0 -150.124 560
-1.56125e-16 -131.437 573.126 -3.95517e-16 -131.439 586.252 0 -131.446 586.251 0
-150.141 560 -4.33681e-19 -150.125 665.036 -2.27682e-16 -131.448 678.223 1.52222e-16 -131.436
691.391 2.1684e-19 -131.398 691.335 2.1684e-19 -150.098 665.025 0 -150.131 769.996
6.88035e-16 -131.291 770.003 1.66165e-15 -112.564 822.468 0 -112.496 822.443 -2.64719e-15
-150.002 769.976 0 -150.01 874.898 -2.05944e-15 -112.501 874.845 1.0842e-19 -75.0013
979.908 0 -75.0013 1084.95 0 -75.001 1189.97 0 -75.0007 1294.98
0 -75.0005 1400 9.93582e-15 -75.0004 -700 3.38813e-21 -5.72304e-05 -594.997 0
-7.6816e-05 -489.993 6.77626e-21 -0.000116721 -384.986 1.35525e-20 -0.000163077 -280.089 -8.67362e-19 0.0558625
-175.074 -5.25404e-16 0.00335334 -175.025 0 -37.5011 -122.562 -2.71051e-20 -72.9365 -122.561
0 -75.0498 -155.702 0 -37.5077 -63.3483 1.35525e-20 -75.0926 -70.0553 0
-75.0911 -70.0605 6.79409e-16 -65.7232 -68.6047 1.69407e-21 -65.7244 34.986 0 -75.0512
34.9795 -3.98986e-17 -73.8989 36.9971 -4.33681e-19 -73.5755 36.642 -8.67362e-19 -75.0089 769.928
-1.9095e-15 -56.2604 769.811 -5.16297e-16 -37.501 822.384 0 -37.5037 822.398 -2.1684e-19
-75.0054 769.919 2.1684e-19 -75.0268 874.877 1.27849e-15 -37.4969 874.75 0 -0.00319055
979.88 0 -0.00258442 1084.94 0 -0.00172148 1189.96 -2.71051e-20 -0.00107926 1294.98
2.71051e-20 -0.000692181 1400 -1.76817e-15 -0.000518079 -700 0 74.9998 -594.997 0
74.9996 -489.994 0 74.999 -385.121 0 75.0756 -280.13 0 75.0339
-175.132 6.25163e-16 75.065 -175.108 -1.35525e-20 37.5271 -137.624 0 37.543 -122.618
3.38813e-21 31.1048 -122.604 0 18.774 -122.595 -1.0842e-19 0.00160859 -70.0522 0
0.00137791 -70.0712 -1.59215e-16 2.34763 -66.7567 0 2.3453 -66.6893 2.71051e-20 1.16896
-66.6788 0 0.00102337 140.57 0 -0.000701733 140.61 1.59412e-16 4.68711 147.092
0 4.68742 147.089 8.47033e-22 2.3437 147.079 0 -0.000115042 769.672 8.57604e-17
18.7477 769.818 1.56364e-15 37.4984 822.375 0 37.5044 822.289 -1.0842e-19 -0.00139072
769.67 0 -0.00120793 874.872 1.34636e-15 37.4981 874.931 0 75.0096 979.906
-1.0842e-19 74.9957 1084.94 5.42101e-20 74.9976 1189.97 0 74.9987 1294.98 0
74.9992 1400 1.06882e-15 74.9994 -385.123 1.35525e-20 125.208 -467.393 0 150.013
-385.123 1.35525e-20 150.066 -280.139 0 133.803 -280.142 5.42101e-20 150.071 -175.117
0 150.111 -175.127 2.71051e-20 112.607 -175.132 8.47033e-21 76.5976 -700 0
150 -594.998 0 149.999 -489.995 0 149.999 -173 -8.47033e-22 75.0666
-43.8386 5.42101e-20 82.1741 -61.7019 4.33681e-19 93.8719 -43.8344 0 93.8496 -43.8397
0 84.47 34.9672 8.67362e-19 75.1266 34.9631 6.07153e-17 76.3154 36.5996 0
76.3272 36.5972 0 75.1603 769.851 1.94072e-16 93.7353 769.91 4.87891e-17 112.484
822.388 2.1684e-19 112.488 822.424 0 75.0203 769.938 0 75.0374 874.89
-1.51843e-15 112.491 874.931 0 149.992 979.943 -5.42101e-20 149.996 1084.96 0
149.998 1189.97 0 149.999 1294.99 1.35525e-20 149.999 1400 3.13531e-15 150
-490.027 -1.69407e-21 191.871 -550.997 0 225.02 -490.052 0 225.049 -385.109
0 225.056 -280.111 0 225.088 -175.063 0 225.071 -175.095 -1.04734e-15
187.6 -700 1.69407e-21 225 -594.998 0 225 -69.9883 1.35525e-20 149.988
-69.9918 1.15912e-15 187.493 -17.4927 -2.71051e-20 187.494 -17.4935 -2.71051e-20 187.264 -69.8343
0 149.989 34.9964 -8.67362e-19 150.059 34.9742 2.328e-15 168.92 61.2353 4.33681e-19
168.925 61.2356 0 150.177 140.007 -2.1684e-19 150.162 140.005 2.2031e-16 168.912
166.254 0 168.906 166.255 0 150.151 245.001 0 150.163 245.001
-8.48063e-16 168.916 271.251 2.1684e-19 168.914 271.251 0 150.173 350 4.33681e-19
150.176 350 -7.54822e-16 168.91 376.25 0 168.911 376.25 0 150.177
455 -4.33681e-19 150.176 455 1.86136e-15 168.909 481.25 2.1684e-19 168.911 481.25
-4.33681e-19 150.177 560 0 150.178 559.999 1.82363e-16 168.913 586.249 0
168.917 586.25 -2.1684e-19 150.182 665.03 0 150.193 665.023 9.37618e-16 168.922
691.243 2.1684e-19 168.722 691.248 2.1684e-19 149.967 822.435 -1.0842e-19 149.988 769.955
1.63931e-15 149.984 769.97 1.98474e-15 187.486 822.458 0 187.49 874.953 -1.11022e-15
187.492 874.965 0 224.995 979.965 -5.42101e-20 224.997 1084.97 0 224.999
1189.98 0 224.999 1294.99 1.35525e-20 225 1400 5.69857e-15 225 -557.446
-1.69407e-21 300 -490.046 0 300 -385.098 0 300 -280.093 4.33681e-19
300 -175.043 0 300 -76.1356 -9.48677e-20 300 -70.9141 1.35525e-20 224.996
-122.548 1.52656e-15 225.065 -700 7.74253e-15 300 -594.999 -3.38813e-21 300 -69.994
0 224.995 -69.9962 0 300 -69.9956 0 262.498 -66.9054 -1.35525e-20
262.501 -69.5321 1.35525e-20 224.996 34.987 -1.35525e-20 225.11 34.9914 0 245.756
48.6354 6.77626e-21 262.555 87.5011 -2.71051e-20 262.555 87.5003 0 225.111 140.003
0 225.108 140.002 4.23766e-15 262.554 192.502 1.0842e-19 262.552 192.502 -1.0842e-19
225.104 245.001 0 225.099 245.001 4.05719e-15 262.55 297.501 0 262.548
297.501 1.0842e-19 225.096 350 0 225.095 350 4.93019e-15 262.548 402.5
-1.0842e-19 262.547 402.5 0 225.094 454.999 0 225.095 454.999 3.44917e-15
262.547 507.498 -1.0842e-19 262.548 507.499 0 225.095 559.998 0 225.097
559.997 -2.99446e-15 262.549 612.495 -1.0842e-19 262.55 612.497 0 225.1 665.007
0 225.1 664.999 -1.53902e-15 262.55 717.488 0 262.493 717.486 0
224.987 874.976 5.42101e-20 300 822.468 -1.0842e-19 224.992 769.978 1.0842e-19 224.99
769.984 2.22619e-15 262.494 769.984 -5.42101e-20 300 979.974 0 300 1084.98
0 300 1189.98 0 300 1294.99 0 300 1400 0
300 35.0007 1.0842e-19 -150.05 48.1118 -4.33681e-19 -131.431 61.2412 0 -131.442
61.2454 -8.16187e-16 -150.132 113.757 1.61373e-15 -150.161 113.759 0 -131.483 126.884
0 -131.48 36.6261 0 -76.2272 34.9816 0 -76.238 218.752 -3.57353e-16
-150.144 218.752 0 -131.448 231.876 0 -131.44 323.75 1.03563e-15 -150.139
323.75 0 -131.444 336.875 0 -131.438 428.75 -4.93529e-16 -150.139 428.75
0 -131.444 441.875 0 -131.438 533.75 7.76722e-16 -150.139 533.75 -4.33681e-19
-131.444 546.875 0 -131.438 638.758 3.45644e-16 -150.146 638.763 0 -131.452
651.896 0 -131.45 743.79 2.27682e-16 -150.061 743.801 0 -131.328 769.993
1.11586e-15 -93.8109 743.802 -4.33681e-19 -93.8571 743.703 0 -75.0596 -56.9292 0
-75.094 -56.9379 0 -65.7339 33.3342 -4.51028e-17 -75.0811 33.3312 0 -73.9207
-66.6946 -1.14465e-16 -1.1662 -66.7666 0 -2.34209 -70.0751 2.71051e-20 -2.34396 140.61
-6.28085e-16 -4.68798 140.61 0 -9.376 127.471 0 -9.37901 127.406 0
-0.00361664 147.088 5.84165e-17 -2.34381 147.091 1.69407e-21 -4.68759 743.677 -2.1684e-19 -56.2792
769.679 -1.47712e-15 -18.7503 743.335 -1.0842e-19 -18.7499 743.292 0 -0.00040476 -70.0909
[...]
POINT_DATA 7981
FIELD attributes 1
p 1 7981 float
4.42964 4.43837 4.4536 4.45469 4.39063 4.45527 4.2578 4.42722 3.84613 4.25298 2.60702
3.39998 -0.793871 2.66459 0.50919 -8.00588 -2.78872 -8.11126 -8.76631 -12.2648 -12.4197
-15.3104 -16.1124 -15.8007 -14.9434 -15.9254 -15.6662 -15.5931 -15.773 -15.4833 -15.3033
-15.2536 -15.428 -15.1093 -14.8869 -14.8027 -15.0522 -14.5513 -13.9448 -13.756 -14.4204
-12.849 -11.0452 -10.8454 -12.6182 -3.68594 -8.43104 -8.99575 -8.68203 -4.91531 -2.63495
-1.10382 -0.685886 -0.389246 -0.15234 -0.132273 0.0783356 -0.024707 0.122222 0 -0.00281035
4.49035 4.51502 4.6156 4.8827 5.48007 6.51536 4.55467 4.11515 2.36693 -1.81135
-13.2826 -8.73515 -13.265 -16.6174 -19.6857 -19.5128 -18.4058 -16.9724 -16.5157 -16.8822
-16.3863 -16.0554 -15.8094 -16.3007 -15.6998 -15.5971 -15.5034 -15.3853 -15.5699 -15.4213
-15.4413 -15.4504 -15.1024 -15.2297 -15.5605 -15.6929 -15.6378 -14.5315 -14.9267 -15.2524
-14.8056 -13.3453 -11.7194 -13.6118 -8.87735 -3.79245 -1.27132 1.11581 0.707706 0.457747
0.347292 0.167033 0 4.52747 4.57503 4.7802 5.40058 7.19614 12.8626 9.5222
6.96198 11.3535 8.47047 6.92389 4.33836 5.78087 -12.8455 -9.86088 -10.2332 -29.5727
-26.6742 -23.8221 -22.26 -25.2475 -17.4811 -17.0656 -16.7216 -16.6485 -17.3561 -15.72
-15.6654 -15.6301 -15.6246 -15.7257 -15.7087 -15.7775 -15.8458 -15.7027 -15.6145 -16.8294
-17.1554 -17.4758 -16.8036 -16.3797 -20.7503 -21.6411 -21.7824 -18.1573 -18.2935 -10.2907
-8.06737 3.75681 -1.48889 -9.02147 5.04331 11.3345 3.82976 2.44183 1.35539 0.495318
0 4.54391 4.60082 4.85086 5.63526 8.09575 18.6805 18.0658 19.7617 19.0398
22.6885 26.2397 26.0572 31.6821 31.6403 -2.46319 -3.42925 -6.97604 -5.92762 -8.54725
-4.45983 23.6748 14.0316 -4.79891 19.5443 19.9542 6.23124 4.11442 2.33515 0.962423
0 4.53092 4.57926 4.7871 5.41203 7.21778 12.9008 18.0766 27.0151 33.3076
38.504 38.4194 157.234 159.417 177.945 181.512 179.844 -29.8995 -28.5821 -7.53807
-1.61524 -2.37253 -1.17 0.912002 24.5146 27.4221 2.79239 19.8442 11.5163 4.15732
2.47396 1.34388 0.513843 0 5.07324 4.688 4.90524 5.8897 5.52207 6.6054
9.59708 12.766 4.49702 4.52299 4.62832 13.1522 20.52 17.9655 16.3842 19.3777
0.215337 0.422353 -1.97311 -3.01643 -7.06306 -6.9261 4.14249 14.4506 -1.27942 5.30084
1.31067 0.826266 0.441966 0.310107 0.157413 0 4.54081 4.4678 4.47147 4.45632
4.30352 3.51462 4.66978 4.46245 4.46516 6.02136 2.58614 -1.65896 -1.65111 6.0134
-9.46987 -9.54279 -14.6045 -16.691 -25.7242 -22.3888 -21.0093 -22.7874 -17.1931 -17.1092
-16.4593 -16.465 -15.8338 -15.8183 -15.7994 -15.8426 -16.1162 -15.9707 -16.1129 -16.3066
-17.3855 -16.8314 -17.1774 -17.9802 -19.785 -17.6391 -16.9472 -19.3514 -1.18231 -8.65067
-8.86183 -3.65788 -1.16566 -2.56146 -0.610108 -0.131461 0.0771232 0.127881 0 4.42916
4.40795 4.28883 3.89768 2.72109 -0.602547 0.69803 2.82599 4.44795 4.44097 0.66011
-0.808856 -0.93274 -1.0967 0.628211 -8.10407 -7.98824 -8.98385 -12.0892 -13.2599 -16.4555
-15.0773 -16.109 -17.0189 -16.3573 -15.9795 -15.7008 -15.8225 -15.622 -15.5531 -15.4806
-15.5661 -15.5663 -15.4186 -15.3171 -15.5855 -15.5304 -15.073 -14.5052 -15.1999 -14.2279
-13.3605 -11.4006 -12.1139 -3.63996 -4.86022 -8.79585 -9.18642 -8.59733 -1.04415 -0.374808
-0.143303 -0.0304764 -0.00368123 -9.72685 -15.8251 -21.4215 -16.9323 -26.4276 -33.6803 -32.6942
-4.86329 -1.84691 -18.3226 -18.5555 -17.9721 -15.8938 -15.8939 -15.7907 -15.5718 -15.6245
-15.6619 -16.0642 -16.3708 -16.5983 -17.8733 -19.4518 -20.2284 -14.0885 -15.8507 -9.24693
-24.6313 -32.5161 26.4143 31.306 0.588554 -0.602529 181.644 178.189 159.619 -28.7492
-43.8963 -82.4441 -75.8842 -0.803617 -7.00823 -40.4938 -4.68892 -35.7836 -31.1835 31.7735
26.1848 26.5951 31.4473 -0.284914 1.68346 2.79474 -82.7858 -42.8795 -2.56766 -33.3164
-2.61229 -34.7034 -27.6648 -20.7824 -15.2999 -9.75945 -30.5212 -33.4165 -33.9656 -26.5402
-24.7983 -27.7811 -17.2286 -17.7679 -18.4948 -18.3168 -16.4921 -16.796 -15.8665 -15.8732
-15.9041 -15.8854 -15.8903 -15.877 -16.2579 -16.1659 -16.0808 -15.9794 -16.5084 -16.3822
-17.9845 -17.6521 -17.3236 -16.9157 -18.8801 -18.4394 -22.9542 -22.4589 -21.5032 -19.3707
-21.8401 -23.5076 -23.8 -9.55962 -15.3514 -13.9275 -2.30673 -3.46817 26.2004 -2.2405
18.5285 23.7673 19.0678 16.0784 0.900307 30.6137 25.4522 36.3768 23.4039 31.7926
37.328 39.5481 38.5435 153.335 120.508 122.307 20.8234 20.8158 18.907 17.4771
20.4564 22.8251 22.6448 47.6256 49.393 62.5691 65.8633 62.3172 53.0899 47.7996
-133.692 -131.904 -131.523 -133.403 -94.7305 -83.0677 -82.0233 -81.6687 -94.9443 -67.1675
-78.994 -76.2867 -62.9251 -82.1604 -87.6213 -91.6989 -88.067 30.5918 120.487 120.28
152.954 153.639 19.0931 25.4642 23.477 39.565 37.3247 31.8031 -81.1488 -78.9652
-87.4797 -107.719 -105.846 18.7078 24.0424 7.22365 4.66812 6.04001 7.26818 8.71629
-7.00831 -1.84495 -3.23878 5.49061 5.5482 1.26913 7.25036 -1.70481 -16.6566 -17.3554
-18.3143 -38.983 -37.3129 -43.4424 -54.3009 -51.3452 -45.3247 -36.3178 -30.512 -31.5252
-35.3599 -39.7559 -20.5731 -21.5193 -22.7655 -22.9482 -20.7798 -17.0719 -16.7592 -16.6652
-16.7957 -16.9587 -16.1011 -16.1588 -16.2449 -16.2908 -16.1233 -15.8456 -15.8607 -15.8527
-15.8286 -15.8342 -16.0347 -16.0039 -15.9706 -15.9473 -15.9948 -16.3643 -16.5201 -16.6269
-16.5483 -16.4703 -17.2948 -17.1695 -17.0371 -16.9011 -17.1376 -18.582 -19.1382 -19.4781
-19.1659 -18.8656 -22.2886 -21.7188 -21.1475 -20.599 -21.5578 -68.8798 -55.6728 -50.1644
-60.3632 -27.3897 -28.966 -32.9996 -31.7468 -30.1982 -33.403 -35.5779 -30.6051 -27.648
-8.57659 -20.2095 -18.22 -9.69974 -44.5591 -38.07 -47.8447 -53.6407 -56.0607 -34.2692
-40.5048 -46.522 -41.8489 -36.5861 -58.6922 -58.01 -46.9313 -31.8079 -28.0253 -28.316
-20.2056 -21.723 -21.0308 -20.2761 -19.7754 -17.4295 -17.8559 -17.7282 -17.4974 -17.3272
-19.2809 -18.8995 -19.155 -17.1401 -16.9657 -17.0554 -16.1572 -16.4014 -16.3561 -16.2287
-16.1382 -15.5902 -15.6771 -15.6537 -15.5918 -15.5424 -16.0473 -15.9592 -15.9581 -15.5019
-15.4974 -15.546 -15.5353 -15.5313 -15.5038 -15.5046 -15.5173 -15.7605 -15.6693 -15.6885
-15.738 -15.7951 -15.531 -15.5548 -15.5594 -15.8572 -15.9153 -15.866 -16.2693 -16.1116
-16.1812 -16.2631 -16.3552 -17.2738 -16.9488 -17.1041 -17.2822 -17.4661 -16.4611 -16.567
-16.4584 -17.6864 -17.9129 -17.6688 -19.3809 -18.7034 -19.0834 -19.4726 -19.8672 -23.8627
-22.4078 -23.5397 -24.5077 -25.4917 -20.3528 -20.8402 -20.2039 -26.7552 -28.2342 -25.5748
-51.8686 -54.056 -29.0498 -33.8009 -33.2379 -27.5132 20.9937 47.2528 17.4335 18.7472
17.27 -123.33 -123.172 -124.84 19.1729 72.546 74.9561 -105.016 -105.093 -134.721
-134.503 -109.129 -90.2458 -80.6943 -127.991 -125.634 -130.099 62.3332 65.5962 74.5602
72.1859 48.1646 63.2925 49.3121 17.9916 19.4318 21.347 21.5093 23.2542 20.8521
17.8211 19.7141 -135.593 -137.485 -134.198 -125.117 -129.123 -131.506 -135.99 -134.132
-136.625 -138.24 47.2879 53.0792 62.1762 -100.2 -108.494 -108.253 -100.508 -138.952
-137.406 -89.4857 -89.4528 -89.881 -73.6378 -80.0575 -90.3633 -91.9707 -85.692 -81.4871
-7.1874 -8.63107 -16.9018 -36.499 -44.708 -48.831 -42.0194 -46.642 -57.6257 -57.5444
-17.129 -17.3867 -17.5156 -19.2352 -19.071 -19.7233 -15.8358 -15.8524 -15.8604 -15.995
-15.9811 -16.0304 -16.398 -16.3214 -16.2355 -16.0531 -16.0979 -16.0597 -18.611 -18.3578
-18.1228 -17.4154 -17.583 -17.4355 -29.0048 -27.622 -25.6909 -22.7175 -23.6918 -22.9884
-105.898 -105.291 -108.248 -108.551 -46.671 -47.8211 -52.1092 -61.4483 -58.2443 -74.6267
-67.0928 -69.7004 -73.0276 -80.6285 -87.2516 -85.4739 -94.3758 -64.4865 -69.1283 -66.7445
-62.0585 -80.0725 -84.8302 -4.72128 -10.6621 -10.0738 -2.93642 -44.3548 -37.899 -31.0378
-28.8007 -39.7401 -42.3275 -35.8593 -36.2284 -39.7978 -43.9058 -25.6052 -26.867 -28.2096
-27.9439 -25.5167 -16.9924 -16.818 -17.0222 -17.1399 -17.2453 -16.6475 -16.7154 -16.7501
-16.5637 -16.4712 -15.9932 -15.9743 -15.9529 -15.969 -15.9965 -16.0369 -16.021 -15.9938
-16.0035 -16.0404 -16.6039 -16.6638 -16.6235 -16.5979 -16.5697 -16.893 -16.8323 -16.7777
-16.8206 -16.9242 -19.082 -19.3935 -19.445 -19.2879 -19.1157 -20.608 -20.3678 -20.1512
-20.1105 -20.5433 -59.3964 -56.9045 -54.6399 -60.0749 -66.9906 -33.0009 -35.4151 -36.97
-35.5239 -34.1171 -47.4931 -44.213 -41.0897 -43.2742 -7.06998 -12.6349 -12.9116 -9.42064
-35.2289 -35.4708 -42.8814 -47.2406 -4.86237 -6.46026 -43.9008 -32.3699 -49.6807 -37.1264
-44.9891 -46.6163 -41.5002 -36.5159 -72.9033 -69.8097 -65.5511 -59.8262 -65.7597 -31.6665
-27.7579 -30.1723 -21.5742 -22.8728 -21.091 -20.6105 -20.3724 -17.0055 -17.2435 -17.1117
-16.9749 -16.878 -17.9188 -17.7616 -17.6401 -17.7845 -18.0888 -16.7744 -16.6993 -16.8123
-16.3676 -16.4898 -16.4134 -16.3481 -16.3083 -15.5001 -15.5522 -15.4952 -15.4618 -15.4464
-15.7021 -15.6571 -15.6283 -15.684 -15.7567 -15.4257 -15.4167 -15.4712 -15.4447 -15.4426
-15.3899 -15.3874 -15.3987 -15.8175 -15.7615 -15.73 -15.7549 -15.791 -15.5906 -15.6139
-15.6434 -15.6668 -15.6225 -15.826 -15.8547 -15.8816 -16.0564 -15.9888 -15.9559 -15.9869
-16.0327 -17.6401 -17.4251 -17.446 -17.5569 -17.6795 -16.8989 -16.9877 -17.0814 -17.0598
-16.8985 -17.8118 -17.9297 -17.881 -18.6944 -18.3931 -18.436 -18.5863 -18.7547 -26.7457
-25.5207 -25.7882 -26.357 -26.9498 -22.9457 -23.3776 -23.8202 -23.5486 -22.7291 -27.5996
-28.4664 -28.471 -50.78 -41.2365 -43.2601 -34.4023 -36.2333 -41.1527 -38.2101 19.0735
18.9532 17.4158 17.4603 -108.853 -107.484 -121.354 -120.682 -120.058 -120.529 -89.8165
-80.2551 -81.1144 -64.3641 -64.8885 -79.1215 -77.9467 18.2325 18.2947 19.9032 19.8629
-99.3079 -99.8137 -100.831 -100.852 -126.739 -125.174 -125.761 -127.329 -101.111 -99.391
-70.4214 -63.8461 -60.1654 -81.7418 -78.9143 -76.5728 -81.2701 -86.0835 -48.4948 -52.9921
-49.6485 -68.409 -63.3699 -70.0844 -73.7639 -76.073 -17.385 -17.5029 -17.2144 -18.1583
-17.7826 -18.1361 -18.3514 -18.5366 -16.0145 -16.0265 -16.0069 -16.0944 -16.052 -16.0853
-16.1227 -16.1559 -16.5339 -16.4952 -16.531 -16.359 -16.4109 -16.3777 -16.3548 -16.3302
-18.9548 -18.7992 -18.7868 -18.0714 -18.2895 -18.2981 -18.1781 -18.0581 -32.9481 -31.8371
-31.0609 -26.5558 -27.8401 -28.3314 -27.6107 -26.909 -1.80552 -5.50404 -3.26534 15.6241
17.5837 -1.34794 14.825 12.6569 14.7608 8.28025 6.2092 4.06304 6.50755 26.5477
25.318 26.867 28.6585 32.0226 33.5579 30.0727 28.3947 -132.086 -131.662 -131.068
-131.57 -132.176 -132.526 35.7018 33.6615 42.5406 42.2207 17.9401 17.2616 -2.39447
-0.336303 15.2661 13.3064 15.5009 18.1938 6.98146 4.64253 6.81432 8.7852 -79.6897
-78.3681 -75.2487 -65.7202 -70.3543 -50.0212 -57.2659 -51.5038 -20.7381 -21.1014 -21.4472
-21.1557 -20.375 -23.5996 -23.7309 -24.5818 -16.3571 -16.4095 -16.4415 -16.3144 -16.2549
-16.4047 -16.5556 -16.6001 -16.1773 -16.1684 -16.1496 -16.1572 -16.1884 -16.0692 -16.0556
-16.0437 -17.399 -17.3282 -17.2534 -17.2756 -17.412 -17.0266 -16.9976 -16.9483 -23.0206
-22.657 -22.2985 -22.175 -22.8613 -21.0252 -21.1162 -20.8673 -72.6754 -69.0596 -79.723
-82.5045 -83.1438 -57.0932 -62.7421 -54.3703 -84.5172 -84.0592 -73.9093 -70.1958 -78.5978
-76.448 -19.4827 -19.784 -19.504 -19.4032 -19.2989 -20.114 -19.9943 -20.7251 -19.1562
-18.9951 -19.1452 -18.4188 -18.2566 -18.0615 -16.0612 -16.1278 -16.0883 -16.0505 -16.0224
-16.2677 -16.2379 -16.2848 -15.9857 -15.9557 -15.9992 -15.8388 -15.7885 -15.7379 -15.508
-15.4857 -15.4537 -15.4627 -15.4796 -15.4069 -15.4196 -15.4595 -15.4958 -15.513 -15.5401
-15.5907 -15.5582 -15.5684 -16.4157 -16.3104 -16.2994 -16.353 -16.4131 -16.0803 -16.1251
-16.14 -16.4782 -16.537 -16.5344 -16.7638 -16.7587 -16.8213 -20.2927 -19.8244 -19.9273
-20.1717 -20.4227 -18.941 -19.1219 -19.0395 -20.7039 -20.978 -20.8192 -22.0174 -22.2029
-22.5651 41.7936 35.0771 35.3315 39.7975 17.5385 17.7637 18.0902 20.8941 21.1638
21.2231 19.1021 41.927 32.7891 -116.095 -115.48 -111.334 -111.934 -123.28 -123.831
-120.246 -114.832 27.8998 25.4325 24.3514 30.1547 -132.316 -132.018 -121.951 -122.52
26.92 28.375 26.0169 25.6209 19.8841 21.1785 21.1794 18.4082 18.3076 28.3229
24.7983 25.8937 30.3398 -110.299 -112.226 -106.512 -105.028 -123.987 -108.533 -116.228
-122.845 40.1683 35.8444 29.0386 27.03 32.3312 28.8171 30.5165 33.8835 30.6943
-128.095 -127.036 -128.366 -128.988 -129.897 -129.198 -129.188 -129.766 -128.429 -127.916
-72.7531 -81.9956 -81.6453 -78.7159 -79.981 -71.6565 -19.7244 -20.126 -20.4606 -18.7905
-19.0031 -18.6137 -16.1984 -16.2739 -16.3086 -16.1836 -16.1961 -16.1282 -16.2093 -16.1861
-16.1772 -16.2989 -16.2716 -16.3 -17.5461 -17.5367 -17.4706 -17.9487 -17.8541 -17.8712
-23.6196 -23.8255 -23.4245 -26.2952 -25.716 -25.436 -1.15002 -4.76973 -4.28391 -0.476823
-21.5843 -14.8787 -14.2577 -20.1711 -43.9106 -41.58 -41.3761 -43.6802 -30.818 -31.5446
-31.7206 -30.9718 -17.1517 -17.0022 -16.9487 -17.094 -16.7085 -16.7639 -16.819 -16.7577
-15.9144 -15.8932 -15.9606 -15.9738 -15.9419 -15.9332 -15.8726 -15.8878 -16.5738 -16.6156
-16.6742 -16.6257 -16.7199 -16.6991 -16.6424 -16.6681 -19.1977 -19.3897 -19.4533 -19.2591
-19.8975 -19.7483 -19.6801 -19.8295 -46.595 -45.4033 -46.7 -48.6138 -35.13 -36.7543
-37.2365 -36.325 -35.5084 -42.7905 -41.2438 -40.4115 -40.1651 -42.2358 -6.74974 -6.86625
-7.00316 -26.1987 -24.3668 -17.7404 -18.6211 -2.1847 -6.63186 -3.10248 -35.5165 -38.3419
-38.0079 -35.102 -58.8027 -55.9555 -56.0491 -58.8538 -32.2615 -32.6622 -19.9905 -20.3126
-19.8757 -19.5402 -16.7584 -16.8527 -16.7515 -16.6671 -17.0967 -16.9701 -17.0829 -17.2144
-16.5899 -16.6752 -16.4616 -16.5319 -16.4633 -16.3997 -15.3972 -15.4172 -15.4435 -15.4233
-15.5 -15.4791 -15.459 -15.4824 -15.4102 -15.3825 -15.3528 -15.3571 -15.3881 -15.3839
-15.8167 -15.7854 -15.833 -15.8625 -15.7167 -15.7483 -15.7081 -15.6773 -15.8971 -15.8521
-15.8994 -15.8816 -15.9258 -15.9411 -17.7739 -17.648 -17.7006 -17.8274 -17.3399 -17.4414
-17.3974 -17.2964 -17.964 -17.9125 -18.2326 -18.1231 -18.1781 -18.2863 -26.9947 -26.5516
-26.6601 -27.0377 -25.1206 -25.6148 -25.5054 -25.0071 -27.1964 -27.3307 -33.157 -31.1912
-28.9144 -30.509 -28.2327 -26.2216 -26.6016 -27.679 -29.996 14.9866 13.8577 11.9453
11.8434 11.5936 11.519 13.9073 -113.9 -108.376 -86.2337 -101.382 -102.425 -115.525
-126.098 -122.126 -134.595 -131.115 -134.423 15.1339 12.692 12.6248 13.2539 15.0399
16.1106 -123.29 -129.412 -118.157 -103.222 -89.0639 -111.331 -117.708 -139.144 -135.906
-46.104 -46.2832 -64.3279 -61.8319 -61.8072 -64.3483 -17.2211 -17.2853 -17.8248 -17.6252
-17.5356 -17.7227 -15.9901 -15.9315 -15.9625 -15.962 -16.0105 -16.0071 -16.5903 -16.539
-16.3954 -16.4464 -16.4913 -16.4389 -19.0902 -19.0296 -18.5471 -18.6968 -18.7481 -18.5947
-34.7678 -34.0112 -33.7318 -30.4788 -31.4674 -31.7229 -30.7023 -1.09723 0.786747 14.6125
16.8871 14.4904 12.8962 8.2972 7.02061 4.96292 6.4299 40.9105 40.1088 43.6818
45.7636 -97.1238 -89.1595 -102.66 40.9302 39.6544 28.5958 31.2551 15.3901 13.8445
15.4504 17.8523 2.2207 0.274319 7.23386 5.89168 7.97735 9.13696 -93.1873 -92.5035
-90.288 -90.5877 -81.0624 -83.3444 -86.6331 -85.1418 -20.7426 -21.0438 -21.1436 -20.8262
-22.2988 -21.8432 -21.6839 -22.1073 -16.2062 -16.2538 -16.2481 -16.1977 -16.3849 -16.3468
-16.3455 -16.3741 -16.2083 -16.1993 -16.1427 -16.1527 -16.0528 -16.0945 -16.1451 -16.1003
-17.491 -17.4097 -17.3594 -17.4373 -17.0935 -17.186 -17.2288 -17.133 -23.3198 -22.9232
-22.8303 -23.2196 -21.7531 -22.0929 -22.1693 -21.8246 -94.4927 -94.5107 -96.4315 -96.8098
-91.3673 -92.7771 -89.5817 -87.4017 -96.8767 -94.9093 -90.212 -91.4427 -92.2942 -91.1758
-18.9024 -19.0326 -18.7316 -18.6163 -18.9591 -18.8575 -19.2097 -19.3117 -18.4856 -18.7681
-18.2665 -18.4427 -18.1968 -18.0467 -15.9002 -15.9384 -15.9082 -15.873 -16.0164 -15.9814
-16.0155 -16.0557 -15.8367 -15.8622 -15.7544 -15.7899 -15.7734 -15.7451 -15.4752 -15.4621
-15.5049 -15.5165 -15.4413 -15.4625 -15.4266 -15.4076 -15.5313 -15.491 -15.509 -15.5014
-15.5411 -15.5472 -16.4686 -16.4087 -16.4561 -16.5184 -16.256 -16.3166 -16.2766 -16.2181
-16.5844 -16.537 -16.6651 -16.6234 -16.6689 -16.7092 -20.5976 -20.3308 -20.4022 -20.6756
-19.6541 -19.8811 -19.8216 -19.5978 -20.9713 -20.8916 -21.7236 -21.4404 -21.5262 -21.8097
30.671 41.5912 39.9884 32.6817 30.9249 29.6423 30.9599 33.7647 27.2942 38.1165
-114.346 -111.182 -81.2512 -87.9954 -82.3268 -74.3471 42.2259 27.1795 37.1103 -108.122
-102.847 -128.466 -122.15 -121.299 -128.208 -122.774 -121.255 -121.029 -132.693 -132.777
-133.155 -124.537 -125.728 -110.551 -106.171 -81.4873 -75.5902 -69.1325 -76.1947 32.9759
39.212 44.7825 43.6471 40.5017 42.096 29.5222 31.0249 33.7789 30.8437 43.8597
-95.7309 -99.4404 -100.705 -134.982 -127.829 -127.89 -134.588 -123.902 -125.504 -128.864
-138.337 -137.629 -130.461 -130.943 -129.475 -98.4727 -91.4269 -91.3434 -93.5491 -91.1161
-91.701 -90.5473 -89.8126 -20.5182 -20.4437 -19.5558 -19.8525 -19.93 -19.632 -16.1355
-16.1525 -16.1236 -16.1219 -16.1016 -16.0978 -16.1553 -16.2142 -16.2292 -16.2103 -16.1563
-16.1785 -17.5203 -17.573 -17.7355 -17.6681 -17.6176 -17.6853 -23.6463 -23.7487 -25.0259
-24.5738 -24.4639 -24.9115 -90.9233 -101.488 -101.904 -94.3542 -60.7831 -55.4671 -50.0517
-43.4235 -52.5183 -26.8638 -29.2403 -25.2898 -26.5423 -26.766 -25.526 -30.3328 -30.2916
-16.4933 -16.5536 -16.5797 -16.515 -16.6783 -16.642 -16.0555 -16.0304 -15.974 -15.9973
-15.9135 -15.9718 -16.9641 -16.891 -16.8413 -16.9113 -16.7263 -16.7779 -20.8052 -20.5417
-20.4695 -20.7284 -20.0343 -20.1021 -58.0395 -49.9968 -57.2742 -60.6819 -31.8488 -35.0206
-59.5986 -63.8406 -68.627 -78.2464 -76.2243 -75.9903 -77.9138 -61.677 -61.6392 -19.6372
-19.7433 -19.5205 -19.3645 -19.7821 -19.8559 -17.5195 -17.4116 -17.5572 -17.6737 -17.343
-17.2131 -16.2153 -16.2665 -16.2147 -16.1646 -16.3327 -16.3921 -15.6268 -15.597 -15.5817
-15.6144 -15.515 -15.5322 -15.3842 -15.3722 -15.4082 -15.4206 -15.3903 -15.3578 -15.6346
-15.6704 -15.6285 -15.5939 -15.671 -15.717 -16.0691 -16.017 -16.06 -16.1153 -15.9778
-15.9367 -16.9923 -17.0991 -17.0571 -16.9517 -17.235 -17.2851 -18.8697 -18.686 -18.74
-18.9297 -18.4274 -18.3756 -23.2755 -23.735 -23.6365 -23.1813 -24.5643 -24.6873 15.6936
16.781 15.7822 22.5775 22.8419 23.396 24.2303 23.6325 21.0637 -117.452 -115.471
-116.447 -118.66 -120.595 -119.684 17.0292 17.9621 16.7505 24.9954 24.3181 23.8558
23.8471 21.7665 24.5042 -115.035 -113.297 -112.614 -114.497 -115.624 -115.434 -95.2929
-101.535 -101.599 -92.4135 -81.2605 -79.645 -79.956 -81.753 -66.8348 -66.8229 -18.6246
-18.3773 -18.2904 -18.5518 -17.8721 -17.9836 -16.0544 -16.0241 -16.0812 -16.1046 -16.0186
-15.9635 -16.3051 -16.3458 -16.3974 -16.3523 -16.4368 -16.3809 -18.087 -18.2297 -18.2773
-18.1325 -18.5118 -18.4573 -27.2465 -27.9958 -28.1477 -27.3877 -29.8048 -29.6064 -98.5857
-88.9698 -93.1828 -99.7653 -111.623 -106.494 -103.387 -94.7705 -112.214 -109.975 -61.3253
-70.8476 -67.1361 -83.4904 -79.518 -24.5173 -24.3262 -22.6809 -22.8926 -16.4403 -16.4246
-16.3792 -16.395 -16.0058 -16.0669 -16.0741 -16.0218 -16.9756 -17.0257 -17.083 -17.0406
-21.0033 -21.0756 -21.5558 -21.4847 -74.205 -77.7655 -73.3388 -68.5439 -86.0844 -89.9722
-79.9249 -80.2183 -89.9353 -89.1896 -19.3563 -19.656 -19.4669 -19.1241 -17.8176 -17.6503
-17.9198 -18.1197 -16.1205 -16.1722 -16.0952 -16.0486 -15.6479 -15.6556 -15.7161 -15.7192
-15.431 -15.3955 -15.4004 -15.4337 -15.5679 -15.6083 -15.5685 -15.5299 -16.1686 -16.1234
-16.1855 -16.2259 -16.8686 -16.9084 -16.7758 -16.7337 -19.1284 -19.0691 -19.4186 -19.477
-22.779 -22.8723 -22.1483 -22.0598 30.78 30.2487 31.5273 24.3049 23.5448 25.3397
25.64 -125.076 -123.707 -121.913 -123.082 -129.15 -128.918 -125.722 -126.523 24.5161
24.7553 32.773 31.5284 32.6699 39.8041 38.0346 32.3181 31.9459 33.3344 -131.56
-131.9 -131.975 -131.653 -131.071 -130.935 32.7698 33.134 31.9772 30.7105 23.9855
24.7749 26.3095 25.8214 34.0511 33.2244 33.0829 -88.3103 -96.4011 -103.539 -92.049
-86.7744 -92.1868 -84.0071 -132.755 -133.439 -133.795 -132.626 -131.863 -118.846 -117.79
-120.254 -121.51 -127.617 -126.06 -129.02 -130.337 -102.675 -99.4826 -115.791 -123.531
-121.188 25.5721 24.9988 39.8067 41.7069 -91.4102 -84.2804 -79.83 -132.949 -131.4
-131.251 -130.661 -130.739 -130.722 -131.301 -83.4045 -82.969 -89.3688 -90.3966 -18.8015
-18.8694 -19.347 -19.271 -16.1118 -16.0669 -16.0794 -16.1163 -16.3178 -16.2701 -16.2136