# vtk DataFile Version 2.0
sampleSurface
ASCII
DATASET POLYDATA
POINTS 7981 float
-594.999 0 -300 -700 0 -300 -700 0 -225 -594.998 0
-225 -489.997 -6.77626e-21 -300 -489.997 0 -224.999 -384.996 1.35525e-20 -300
-384.995 0 -224.999 -279.995 0 -300 -279.993 0 -224.998 -174.995
-2.71051e-20 -300 -174.993 0 -224.997 -69.9955 5.42101e-20 -300 -122.493 2.67332e-15
-224.996 -69.9938 0 -224.998 35.0032 0 -300 -17.494 8.04478e-17 -224.999
35.005 1.0842e-19 -225 35.0036 0 -262.5 87.5027 1.73798e-15 -300 87.5032
0 -262.5 140.003 1.16508e-15 -262.5 192.502 0 -262.499 192.502 4.39069e-15
-300 140.002 0 -300 245.001 -1.02663e-15 -262.499 297.501 0 -262.498
297.501 -9.74372e-16 -300 245.001 1.0842e-19 -300 350 -1.52374e-15 -262.498 402.5
1.0842e-19 -262.498 402.5 -1.22255e-15 -300 350 -1.0842e-19 -300 454.999 -4.20128e-16
-262.498 507.499 1.0842e-19 -262.498 507.498 -2.10064e-15 -300 454.999 0 -300
559.997 -2.85828e-15 -262.498 612.496 -1.0842e-19 -262.499 612.495 1.76096e-15 -300 559.997
-1.0842e-19 -300 664.993 -1.25529e-15 -262.499 717.49 0 -262.5 717.49 -3.43822e-15
-300 664.993 1.0842e-19 -300 874.978 0 -300 769.986 0 -300
769.986 -2.33331e-15 -262.5 769.981 0 -225 822.471 -1.86342e-15 -225.001 874.968
5.42101e-20 -225 979.975 0 -300 979.967 0 -225 1084.98 -2.71051e-20
-300 1084.97 2.71051e-20 -225 1189.98 0 -300 1189.98 0 -225
1294.99 -1.35525e-20 -300 1294.99 0 -225 1400 -2.34379e-15 -225 1400
1.35525e-20 -300 -700 0 -150 -594.998 -6.77626e-21 -150 -489.995 -6.77626e-21
-149.999 -384.992 -1.35525e-20 -149.998 -279.989 0 -149.996 -174.987 -5.47847e-16 -149.992
-174.991 -2.71051e-20 -187.495 -122.491 0 -187.495 -69.9921 -2.36329e-15 -187.496 -17.4925
-1.0842e-19 -187.498 87.5043 9.28402e-16 -225.002 35.0068 -1.89584e-15 -187.502 61.2492 1.59681e-15
-187.541 87.5056 0 -187.513 140.005 -2.00317e-15 -187.513 166.254 2.14629e-15 -187.573
192.503 -2.1684e-19 -187.508 192.502 0 -224.999 140.003 0 -225.001 245.001
-1.26223e-15 -187.505 271.251 -4.81169e-16 -187.566 297.501 0 -187.503 297.501 0
-224.996 245.001 0 -224.998 350 1.95915e-15 -187.502 376.25 5.41884e-16 -187.565
402.5 0 -187.502 402.5 0 -224.996 350 0 -224.996 455
4.35416e-16 -187.502 481.25 1.558e-15 -187.565 507.5 0 -187.503 507.499 -2.1684e-19
-224.996 454.999 2.1684e-19 -224.996 560 -1.05883e-15 -187.504 586.25 8.13368e-16 -187.567
612.5 0 -187.506 612.497 0 -224.998 559.998 0 -224.997 665
2.47415e-16 -187.508 691.256 1.87415e-15 -187.51 717.49 0 -187.501 717.489 0
-225 664.994 0 -224.999 769.975 2.13252e-15 -187.501 822.462 0 -187.501
874.957 -3.33067e-15 -187.501 874.936 0 -150.001 979.946 0 -150.001 1084.96
0 -150.001 1189.97 0 -150 1294.99 -1.35525e-20 -150 1400 2.44353e-15
-150 -700 0 -74.9999 -594.997 0 -74.9997 -489.994 0 -74.9993
-384.989 0 -74.998 -279.98 -2.71051e-20 -74.994 -174.966 -3.5831e-15 -74.9817 -175.042
0 -112.513 -122.487 2.71051e-20 -149.991 -122.538 0 -112.545 -70.0149 1.16226e-15
-131.274 -43.7389 0 -131.241 -43.7648 8.67362e-19 -150.038 -69.9896 -5.42101e-20 -149.992
41.1247 -2.1684e-19 -131.373 35.0001 -1.0842e-19 -145.091 34.9986 0 -131.322 140.008
-2.51535e-16 -131.469 153.13 -5.85469e-16 -131.461 166.257 4.33681e-19 -131.458 166.256 0
-150.154 140.007 0 -150.144 245.001 9.68409e-16 -131.437 258.126 4.30211e-16 -131.439
271.25 4.33681e-19 -131.445 271.251 -4.33681e-19 -150.14 245.001 0 -150.126 350
9.19837e-16 -131.436 363.125 3.62557e-16 -131.438 376.25 4.33681e-19 -131.444 376.25 0
-150.139 350 0 -150.124 455 6.72639e-16 -131.436 468.125 9.52797e-16 -131.438
481.25 0 -131.444 481.25 4.33681e-19 -150.139 455 0 -150.124 560
-1.56125e-16 -131.437 573.126 -3.95517e-16 -131.439 586.252 0 -131.446 586.251 0
-150.141 560 -4.33681e-19 -150.125 665.036 -2.27682e-16 -131.448 678.223 1.52222e-16 -131.436
691.391 2.1684e-19 -131.398 691.335 2.1684e-19 -150.098 665.025 0 -150.131 769.996
6.88035e-16 -131.291 770.003 1.66165e-15 -112.564 822.468 0 -112.496 822.443 -2.64719e-15
-150.002 769.976 0 -150.01 874.898 -2.05944e-15 -112.501 874.845 1.0842e-19 -75.0013
979.908 0 -75.0013 1084.95 0 -75.001 1189.97 0 -75.0007 1294.98
0 -75.0005 1400 9.93582e-15 -75.0004 -700 3.38813e-21 -5.72304e-05 -594.997 0
-7.6816e-05 -489.993 6.77626e-21 -0.000116721 -384.986 1.35525e-20 -0.000163077 -280.089 -8.67362e-19 0.0558625
-175.074 -5.25404e-16 0.00335334 -175.025 0 -37.5011 -122.562 -2.71051e-20 -72.9365 -122.561
0 -75.0498 -155.702 0 -37.5077 -63.3483 1.35525e-20 -75.0926 -70.0553 0
-75.0911 -70.0605 6.79409e-16 -65.7232 -68.6047 1.69407e-21 -65.7244 34.986 0 -75.0512
34.9795 -3.98986e-17 -73.8989 36.9971 -4.33681e-19 -73.5755 36.642 -8.67362e-19 -75.0089 769.928
-1.9095e-15 -56.2604 769.811 -5.16297e-16 -37.501 822.384 0 -37.5037 822.398 -2.1684e-19
-75.0054 769.919 2.1684e-19 -75.0268 874.877 1.27849e-15 -37.4969 874.75 0 -0.00319055
979.88 0 -0.00258442 1084.94 0 -0.00172148 1189.96 -2.71051e-20 -0.00107926 1294.98
2.71051e-20 -0.000692181 1400 -1.76817e-15 -0.000518079 -700 0 74.9998 -594.997 0
74.9996 -489.994 0 74.999 -385.121 0 75.0756 -280.13 0 75.0339
-175.132 6.25163e-16 75.065 -175.108 -1.35525e-20 37.5271 -137.624 0 37.543 -122.618
3.38813e-21 31.1048 -122.604 0 18.774 -122.595 -1.0842e-19 0.00160859 -70.0522 0
0.00137791 -70.0712 -1.59215e-16 2.34763 -66.7567 0 2.3453 -66.6893 2.71051e-20 1.16896
-66.6788 0 0.00102337 140.57 0 -0.000701733 140.61 1.59412e-16 4.68711 147.092
0 4.68742 147.089 8.47033e-22 2.3437 147.079 0 -0.000115042 769.672 8.57604e-17
18.7477 769.818 1.56364e-15 37.4984 822.375 0 37.5044 822.289 -1.0842e-19 -0.00139072
769.67 0 -0.00120793 874.872 1.34636e-15 37.4981 874.931 0 75.0096 979.906
-1.0842e-19 74.9957 1084.94 5.42101e-20 74.9976 1189.97 0 74.9987 1294.98 0
74.9992 1400 1.06882e-15 74.9994 -385.123 1.35525e-20 125.208 -467.393 0 150.013
-385.123 1.35525e-20 150.066 -280.139 0 133.803 -280.142 5.42101e-20 150.071 -175.117
0 150.111 -175.127 2.71051e-20 112.607 -175.132 8.47033e-21 76.5976 -700 0
150 -594.998 0 149.999 -489.995 0 149.999 -173 -8.47033e-22 75.0666
-43.8386 5.42101e-20 82.1741 -61.7019 4.33681e-19 93.8719 -43.8344 0 93.8496 -43.8397
0 84.47 34.9672 8.67362e-19 75.1266 34.9631 6.07153e-17 76.3154 36.5996 0
76.3272 36.5972 0 75.1603 769.851 1.94072e-16 93.7353 769.91 4.87891e-17 112.484
822.388 2.1684e-19 112.488 822.424 0 75.0203 769.938 0 75.0374 874.89
-1.51843e-15 112.491 874.931 0 149.992 979.943 -5.42101e-20 149.996 1084.96 0
149.998 1189.97 0 149.999 1294.99 1.35525e-20 149.999 1400 3.13531e-15 150
-490.027 -1.69407e-21 191.871 -550.997 0 225.02 -490.052 0 225.049 -385.109
0 225.056 -280.111 0 225.088 -175.063 0 225.071 -175.095 -1.04734e-15
187.6 -700 1.69407e-21 225 -594.998 0 225 -69.9883 1.35525e-20 149.988
-69.9918 1.15912e-15 187.493 -17.4927 -2.71051e-20 187.494 -17.4935 -2.71051e-20 187.264 -69.8343
0 149.989 34.9964 -8.67362e-19 150.059 34.9742 2.328e-15 168.92 61.2353 4.33681e-19
168.925 61.2356 0 150.177 140.007 -2.1684e-19 150.162 140.005 2.2031e-16 168.912
166.254 0 168.906 166.255 0 150.151 245.001 0 150.163 245.001
-8.48063e-16 168.916 271.251 2.1684e-19 168.914 271.251 0 150.173 350 4.33681e-19
150.176 350 -7.54822e-16 168.91 376.25 0 168.911 376.25 0 150.177
455 -4.33681e-19 150.176 455 1.86136e-15 168.909 481.25 2.1684e-19 168.911 481.25
-4.33681e-19 150.177 560 0 150.178 559.999 1.82363e-16 168.913 586.249 0
168.917 586.25 -2.1684e-19 150.182 665.03 0 150.193 665.023 9.37618e-16 168.922
691.243 2.1684e-19 168.722 691.248 2.1684e-19 149.967 822.435 -1.0842e-19 149.988 769.955
1.63931e-15 149.984 769.97 1.98474e-15 187.486 822.458 0 187.49 874.953 -1.11022e-15
187.492 874.965 0 224.995 979.965 -5.42101e-20 224.997 1084.97 0 224.999
1189.98 0 224.999 1294.99 1.35525e-20 225 1400 5.69857e-15 225 -557.446
-1.69407e-21 300 -490.046 0 300 -385.098 0 300 -280.093 4.33681e-19
300 -175.043 0 300 -76.1356 -9.48677e-20 300 -70.9141 1.35525e-20 224.996
-122.548 1.52656e-15 225.065 -700 7.74253e-15 300 -594.999 -3.38813e-21 300 -69.994
0 224.995 -69.9962 0 300 -69.9956 0 262.498 -66.9054 -1.35525e-20
262.501 -69.5321 1.35525e-20 224.996 34.987 -1.35525e-20 225.11 34.9914 0 245.756
48.6354 6.77626e-21 262.555 87.5011 -2.71051e-20 262.555 87.5003 0 225.111 140.003
0 225.108 140.002 4.23766e-15 262.554 192.502 1.0842e-19 262.552 192.502 -1.0842e-19
225.104 245.001 0 225.099 245.001 4.05719e-15 262.55 297.501 0 262.548
297.501 1.0842e-19 225.096 350 0 225.095 350 4.93019e-15 262.548 402.5
-1.0842e-19 262.547 402.5 0 225.094 454.999 0 225.095 454.999 3.44917e-15
262.547 507.498 -1.0842e-19 262.548 507.499 0 225.095 559.998 0 225.097
559.997 -2.99446e-15 262.549 612.495 -1.0842e-19 262.55 612.497 0 225.1 665.007
0 225.1 664.999 -1.53902e-15 262.55 717.488 0 262.493 717.486 0
224.987 874.976 5.42101e-20 300 822.468 -1.0842e-19 224.992 769.978 1.0842e-19 224.99
769.984 2.22619e-15 262.494 769.984 -5.42101e-20 300 979.974 0 300 1084.98
0 300 1189.98 0 300 1294.99 0 300 1400 0
300 35.0007 1.0842e-19 -150.05 48.1118 -4.33681e-19 -131.431 61.2412 0 -131.442
61.2454 -8.16187e-16 -150.132 113.757 1.61373e-15 -150.161 113.759 0 -131.483 126.884
0 -131.48 36.6261 0 -76.2272 34.9816 0 -76.238 218.752 -3.57353e-16
-150.144 218.752 0 -131.448 231.876 0 -131.44 323.75 1.03563e-15 -150.139
323.75 0 -131.444 336.875 0 -131.438 428.75 -4.93529e-16 -150.139 428.75
0 -131.444 441.875 0 -131.438 533.75 7.76722e-16 -150.139 533.75 -4.33681e-19
-131.444 546.875 0 -131.438 638.758 3.45644e-16 -150.146 638.763 0 -131.452
651.896 0 -131.45 743.79 2.27682e-16 -150.061 743.801 0 -131.328 769.993
1.11586e-15 -93.8109 743.802 -4.33681e-19 -93.8571 743.703 0 -75.0596 -56.9292 0
-75.094 -56.9379 0 -65.7339 33.3342 -4.51028e-17 -75.0811 33.3312 0 -73.9207
-66.6946 -1.14465e-16 -1.1662 -66.7666 0 -2.34209 -70.0751 2.71051e-20 -2.34396 140.61
-6.28085e-16 -4.68798 140.61 0 -9.376 127.471 0 -9.37901 127.406 0
-0.00361664 147.088 5.84165e-17 -2.34381 147.091 1.69407e-21 -4.68759 743.677 -2.1684e-19 -56.2792
769.679 -1.47712e-15 -18.7503 743.335 -1.0842e-19 -18.7499 743.292 0 -0.00040476 -70.0909
[...]
POINT_DATA 7981
FIELD attributes 1
U 3 7981 float
20.0006 0.000638911 -5.41437e-15 20.0001 0.000173523 2.4423e-15 20 0 0 19.9999 0.000645898
-0.00216746 20.0029 0.00136647 -1.3523e-15 19.9999 0.00138468 -0.00705039 20.0107 0.00259002 2.70732e-15
20.0017 0.00266133 -0.0204925 20.0353 0.00450383 1.37525e-15 20.0135 0.00470544 -0.0589953 20.1073
0.00755072 2.71655e-15 20.058 0.00845237 -0.15762 20.3001 0.0117371 -2.72004e-15 20.0955 0.0116413
-0.248482 20.2156 0.0152172 -0.326601 20.635 0.0160959 0 20.3823 0.0205285 -0.43953
20.6245 0.0245047 -0.391257 20.6614 0.0175286 -0.151997 20.8223 0.0163554 0 20.8201
0.0180745 -0.132737 20.9537 0.0143007 -0.0819781 20.9924 0.0069796 -0.0370726 20.992 0.00635256
1.72589e-18 20.9511 0.0127091 2.8423e-15 20.9861 -0.000902182 -0.0146239 20.9748 -0.0076993 -0.00488271
20.9821 -0.00689321 5.67727e-15 20.9901 -0.000554465 -2.84056e-15 20.9655 -0.0129473 0.000238271 20.957
-0.0175553 0.00430912 20.9651 -0.0168075 -5.66903e-15 20.9736 -0.0121883 2.84229e-15 20.9479 -0.0222673
0.00930641 20.9367 -0.0273749 0.0174742 20.943 -0.0261988 9.63661e-18 20.9555 -0.0213814 5.42949e-18
20.9192 -0.0331077 0.0312732 20.8881 -0.0392151 0.0531325 20.8897 -0.0369716 0 20.9234
-0.031408 -2.82982e-15 20.8332 -0.0450862 0.0823207 20.7446 -0.0503745 0.116621 20.7473 -0.0469783
1.21292e-17 20.8334 -0.0424163 -2.80249e-15 20.4038 -0.0508826 -6.63266e-21 20.6335 -0.0498144 3.75287e-15
20.6498 -0.0525646 0.126893 20.6334 -0.0592652 0.285696 20.4682 -0.0599313 0.259353 20.3552
-0.0584438 0.155156 20.2732 -0.0494127 1.37386e-15 20.2522 -0.0567052 0.0692096 20.2381 -0.048183
9.59061e-18 20.2255 -0.0550216 0.0318773 20.2261 -0.0475738 -1.36437e-15 20.2158 -0.0539888 0.0114673
20.2205 -0.0471514 0 20.2156 -0.0534061 0.00202588 20.2174 -0.0530995 -0.00207092 20.2181
-0.0468741 -0.00728433 20 0 0 19.9979 0.000661369 -0.00304264 19.992 0.00142932
-0.00985762 19.977 0.00282712 -0.0304256 19.9437 0.00524937 -0.0943801 19.8884 0.0107385 -0.280791
19.9996 0.0098717 -0.243698 20.0263 0.0132959 -0.352264 20.119 0.0190546 -0.528883 20.3381
0.0277292 -0.692698 20.8536 0.0263678 -0.294761 20.6762 0.0385581 -0.770201 20.886 0.0450333
-0.749737 21.0359 0.046071 -0.585498 21.1778 0.0398012 -0.26578 21.1798 0.0322673 -0.16018
21.1321 0.0206155 -0.101565 21.0269 0.0118153 -0.0687203 21.0002 0.0218062 -0.16289 21.0641
0.00241614 -0.0393222 21.0422 -0.00442836 -0.0203826 21.0242 -0.00817374 -0.0119779 20.982 -0.00680216
-0.00409246 21.0041 0.00131685 -0.0247575 21.0057 -0.0137206 -0.00219175 21.0027 -0.0163507 0.000794828
20.9966 -0.0182623 0.00292978 20.9618 -0.0165554 0.00999349 20.9699 -0.0120272 0.0044228 20.9938
-0.023454 0.0114096 20.9973 -0.0269423 0.0189757 20.9961 -0.0301052 0.0300949 20.9484 -0.0272082
0.0314916 20.9549 -0.0214779 0.0175647 21.0007 -0.0391929 0.0671482 21.0079 -0.0454911 0.0967353
21.0016 -0.0508539 0.136815 20.9166 -0.0417657 0.101607 20.9386 -0.0340653 0.0572582 20.9756
-0.0640262 0.256924 20.9547 -0.0714611 0.338597 20.8639 -0.0741171 0.397101 20.7711 -0.0562835
0.243314 20.8675 -0.0495037 0.166519 20.6375 -0.0776746 0.466164 20.4166 -0.0780722 0.385045
20.2992 -0.0760043 0.264733 20.1724 -0.103996 0.344314 20.1303 -0.0974068 0.137886 20.1396
-0.0957745 0.0175656 20.1393 -0.0950486 -0.045482 20.1375 -0.0944852 -0.0661362 20.1364 -0.0936001
-0.0709575 20 0 0 19.996 0.000673794 -0.00215431 19.9836 0.00147075 -0.00684899
19.9468 0.00298208 -0.0225137 19.8365 0.0058293 -0.0728125 19.5252 0.0133458 -0.304106 19.7329
0.0128892 -0.364919 19.8741 0.0160289 -0.483212 19.6439 0.0194465 -0.618459 19.7799 0.031088
-1.02122 19.8482 0.039458 -1.22937 19.9837 0.0336131 -1.0239 19.9252 0.0254887 -0.809618
20.7935 0.101592 -1.89122 20.6691 0.0742052 -1.45742 20.6736 0.0946371 -1.87151 21.6266
0.14039 -0.259997 21.5126 0.125996 -0.131456 21.39 0.099962 -0.081069 21.2648 0.0606587
-0.123558 21.3757 0.0823119 -0.290854 21.0781 0.0117912 -0.000302158 21.0584 0.00707826 -0.00372758
21.0415 0.00369661 -0.00515905 21.0026 -0.00283199 0.00635056 21.0365 0.00464811 0.00140289 20.996
-0.00449026 -0.0162654 20.9941 -0.00631169 -0.0187127 20.9906 -0.00743719 -0.0178241 20.9528 -0.0142885
0.00512838 20.9582 -0.012128 0.0056969 20.9936 -0.0125451 -0.0179557 20.9974 -0.0140838 -0.0193411
21.0004 -0.0166925 -0.0117791 20.9588 -0.0251323 0.0189664 20.9533 -0.0213835 0.0111015 21.0491
-0.040825 0.040393 21.0648 -0.0471873 0.0532304 21.0792 -0.053533 0.0784774 21.0128 -0.0530669
0.108662 20.9936 -0.0435741 0.0721815 21.2239 -0.107942 0.375229 21.2645 -0.120033 0.472363
21.2545 -0.126418 0.609222 21.0521 -0.102646 0.525665 21.0738 -0.0897879 0.358849 20.6965
-0.143495 1.16103 20.4904 -0.178828 1.5884 19.8568 -0.193173 0.987984 20.324 -0.108436
0.574078 20.6377 -0.113089 0.822817 19.8174 -0.176215 0.57215 17.316 -0.309546 0.93031
18.087 0.0516974 0.357701 18.2563 0.0471585 0.187192 18.3505 0.0448728 0.0834592 18.4153
0.0443718 0.0343491 18.4476 0.045389 0.0159805 20 0 0 19.9952 0.000675978
-7.32735e-05 19.9799 0.00148014 -0.000136989 19.9324 0.00303218 -0.00031715 19.7776 0.00603455 -0.000641887
19.2073 0.0144594 -0.00127437 19.2203 0.0154301 -0.225421 19.1633 0.0235286 -0.691281 19.2056
0.0231704 -0.684786 18.978 0.0192817 -0.360389 18.7568 0.0528432 -2.01733 18.7969 0.0469238
-1.78313 18.4357 0.0525427 -2.10073 18.433 0.0537157 -2.15002 19.3948 0.279609 -5.9408
19.3321 0.269014 -5.9049 18.5232 0.286812 -5.59894 19.5559 0.269251 -5.88272 9.95125
-0.920046 3.43817 3.71496 0.350158 2.5919 9.40793 0.469602 1.38839 16.6594 -0.467077
1.65894 16.2584 -0.770332 2.9436 11.5842 0.375998 0.914423 9.93265 0.901193 -0.446132
16.2865 0.16911 -0.0718837 16.6054 0.167699 -0.0701766 16.7934 0.168574 -0.0695392 16.9284
0.168971 -0.0688787 16.9974 0.171121 -0.0685499 20 0 0 19.996 0.000667249
0.00201808 19.9835 0.00144942 0.00660107 19.9467 0.00294183 0.0219602 19.8366 0.00570001 0.0716525
19.5265 0.0128107 0.300975 19.222 0.0151074 0.222373 18.7543 0.0224695 0.482804 18.4245
0.0262068 0.531511 18.1516 0.0277226 0.425313 18.1818 0.0264379 -0.00123657 9.91334 0.0739133
0.0305072 9.69234 0.0754614 0.85005 7.6502 0.0837841 1.08157 7.241 0.0849313 0.654669
7.43695 0.0837582 0.0456934 -8.49265 -6.67362 0.196161 -7.81325 -6.0893 -2.34954 -5.10626
-5.14718 -3.02709 -4.94354 -5.83486 -1.09733 -5.28359 -6.92681 0.0531519 0.405202 1.87174
-3.24209 5.92676 0.296296 -3.59828 10.7763 0.267377 -2.15737 5.72894 1.34025 -0.654598
-0.761037 2.65089 -1.29246 12.7518 0.178847 -1.48983 17.722 -0.252917 -1.0396 18.2207
0.00343739 -0.436599 18.4141 0.00909226 -0.262832 18.5214 0.0127774 -0.156972 18.5904 0.0141235
-0.105795 18.6227 0.015935 -0.08781 19.9668 0.00281547 0.0273391 19.9887 0.00168268 0.0140552
19.9767 0.00275283 0.0300063 19.92 0.00516541 0.088857 19.9431 0.00501753 0.0936193 19.8869
0.0101893 0.277819 19.7323 0.0123131 0.3615 19.5349 0.0127904 0.303445 20 0
0 19.9979 0.000649386 0.00293991 19.9919 0.00138867 0.00967287 19.5136 0.0132044 0.316305
19.072 0.0659453 2.31601 19.3121 0.0440973 1.58962 19.3555 0.0562157 1.95514 19.1535
0.0645525 2.24008 19.3013 0.34894 5.88274 19.3104 0.33994 5.87743 19.4295 0.354708
5.8482 19.4335 0.364157 5.87279 19.6235 -0.309838 -2.51985 20.3557 -0.149871 -1.71547
19.7606 -0.148299 -1.06842 17.1497 -0.369108 -1.80998 16.6706 -0.568949 -3.23911 19.7452
-0.127446 -0.65654 20.1684 -0.0801526 -0.393559 20.1213 -0.0745128 -0.149846 20.1385 -0.0708542
-0.0297059 20.1454 -0.0688383 0.0327807 20.1513 -0.0675009 0.0548412 20.1547 -0.0672579 0.0588055
19.9963 0.00135571 0.00816306 19.9998 0.000922922 0.0041451 19.9997 0.00132959 0.00696672 20.0014
0.00255377 0.0201756 20.0119 0.0044551 0.0588632 20.0556 0.00790717 0.154914 19.9967 0.00932186
0.240766 20 0 0 19.9998 0.000629319 0.00210796 19.9186 0.0230565 0.802696
20.1135 0.0172916 0.51979 20.3276 0.0202205 0.700235 20.3272 0.0203697 0.702349 19.9189
0.0230975 0.803954 20.6446 0.0638885 1.32707 20.6799 0.0653351 0.985875 20.9025 0.0592063
0.933711 20.9683 0.0793452 1.23788 21.3827 0.0911129 0.345526 21.2529 0.0548299 0.318576
21.2055 0.0432353 0.179554 21.2754 0.0737569 0.171763 21.0488 0.0301094 0.0388644 21.0482
0.0102079 0.054011 21.0188 0.00442536 0.0403054 21.0157 0.0243179 0.0303141 20.978 0.0182061
0.0247645 20.9844 -0.00290056 0.0263223 20.9819 -0.00471252 0.0238093 20.9768 0.0166005 0.0228515
20.988 0.00814179 0.0071075 20.9884 -0.0127481 0.00832547 20.9949 -0.0162108 -0.0019208 20.9974
0.00375242 -0.00349776 21.0506 -0.0181308 -0.0730046 21.0299 -0.0327861 -0.068392 21.046 -0.0411758
-0.111502 21.0785 -0.0291629 -0.121343 21.15 -0.0712023 -0.445451 21.0595 -0.0702542 -0.364871
21.0161 -0.0796168 -0.495975 21.1106 -0.085761 -0.640256 20.315 -0.0861023 -0.636016 20.6229
-0.0955496 -0.898991 20.6386 -0.0683272 -0.505722 20.4126 -0.0674575 -0.413846 20.2976 -0.0643507
-0.288415 20.3527 -0.0507914 -0.165713 20.2511 -0.0472235 -0.0755068 20.2267 -0.0443943 -0.039911
20.2176 -0.0421303 -0.0212688 20.2174 -0.0403508 -0.0112051 20.2197 -0.0397069 -0.00692168 20.0013
0.000865685 4.86088e-16 20.0027 0.0013064 1.35386e-15 20.0104 0.00246465 -1.16307e-18 20.033 0.00427591
1.35419e-15 20.1068 0.00686117 0 20.2727 0.0109074 0 20.2056 0.01417 0.311335
20.0918 0.0109633 0.24564 20 0.000177639 -2.44227e-15 20.0006 0.000620142 2.60879e-18 20.2076
0.0142273 0.312506 20.283 0.0111587 0 20.2906 0.0120482 0.143594 20.298 0.0122075
0.14546 20.2092 0.0142661 0.313176 20.6144 0.0237816 0.412085 20.6096 0.020503 0.288781
20.6558 0.0182251 0.179987 20.7984 0.0193356 0.15588 20.8462 0.0267425 0.325182 20.9931
0.0239008 0.184733 20.9382 0.0166233 0.0946515 20.9896 0.0104814 0.0461966 21.0272 0.016311
0.0876884 21.0108 0.0080583 0.0436783 20.99 0.0040424 0.0241948 20.9833 -0.00161594 0.0143086
20.9939 0.00127421 0.0209023 20.9863 -0.00362566 0.0098804 20.9786 -0.00641351 0.00862075 20.9751
-0.0109169 0.00379187 20.9831 -0.00819955 0.00254612 20.9815 -0.0133578 -0.00703813 20.9708 -0.0157636
-0.00220912 20.9638 -0.021262 -0.0120051 20.9802 -0.0195416 -0.024268 20.9746 -0.0268291 -0.0559631
20.9494 -0.0273449 -0.0288668 20.9188 -0.0337945 -0.0551504 20.9543 -0.0350207 -0.109605 20.9009
-0.0432774 -0.185706 20.8603 -0.0400866 -0.089096 20.7644 -0.0452698 -0.125856 20.7944 -0.0501017
-0.267943 20.4028 -0.0457388 -5.76068e-17 20.4664 -0.0532935 -0.275474 20.6431 -0.0531617 -0.306898
20.662 -0.0474927 -0.135362 20.6374 -0.0453999 -7.45238e-15 20.2724 -0.0425278 4.12102e-15 20.2398
-0.040267 5.46791e-15 20.2283 -0.0387287 1.36707e-15 20.2223 -0.037338 -5.4742e-15 20.2198 -0.0366175
0.0071528 20.6675 0.0668533 -1.30829 20.9301 0.109526 -1.91373 21.1894 0.11972 -1.75462
20.9834 0.0788404 -1.19231 21.4079 0.0928235 -0.580968 21.7823 0.155919 -0.682808 21.7594
0.157407 -0.427204 19.5651 0.282253 -5.88071 19.4207 0.287568 -5.91508 21.0848 0.016811
-0.0122781 21.1332 0.0280358 0.000409243 21.104 0.0187884 0.00190885 20.9665 -0.00988764 0.0060883
21.0036 -0.00226854 -0.0145633 21 -0.00294414 -0.0187302 20.9505 -0.0186219 0.00687153 20.9901
-0.0103709 -0.0198925 20.9927 -0.0113676 -0.0223062 20.9785 -0.0359065 0.0473314 21.027 -0.0307716
0.01509 21.0386 -0.0355827 0.0219663 21.0594 -0.07671 0.243369 21.1696 -0.0877492 0.227152
21.2049 -0.0991956 0.286147 20.8459 -0.117379 0.887353 20.9182 -0.147065 1.17144 19.7521
-0.34385 2.33851 20.066 -0.383856 2.47624 16.001 -0.98764 3.24484 18.7184 0.0585083
-2.24149 18.4107 0.0631168 -2.545 19.2691 0.283985 -5.98609 19.2281 0.277322 -6.04377
7.223 0.0844671 -0.560531 7.62269 0.0831259 -0.992843 9.67072 0.0749027 -0.786282 -7.74874
-6.16627 2.94178 -7.18498 -4.82934 5.66026 -10.1637 -4.03862 3.27858 -11.8241 -5.77816
0.339777 -4.83981 -6.21277 1.17259 -4.97856 -5.45158 3.44021 8.2955 -1.05636 3.42126
-1.37799 2.15389 1.08716 -5.10655 2.15986 0.758789 -5.55885 3.2204 -1.59653 18.4375
0.0515248 2.08121 18.7964 0.0451474 1.76625 18.7157 0.0569264 2.21802 18.4096 0.062417
2.51881 19.2609 0.352174 5.82795 19.1351 0.341757 5.96467 19.1487 0.34392 5.94303
-10.6515 -4.52923 -2.50049 -7.30469 -5.07585 -4.9108 19.3155 0.377306 5.7833 -2.91902
2.06393 -3.07417 11.4504 -0.59452 -3.92778 10.0258 -0.649165 -4.13803 16.4498 -0.693385
-3.71277 21.1509 0.128302 1.81056 20.8954 0.111826 1.94828 20.6451 0.0886504 1.88819
21.6438 0.163471 0.342839 21.7709 0.181867 0.526852 21.778 0.179304 0.785312 21.4057
0.0988336 0.641676 21.409 0.126606 0.145792 21.536 0.15062 0.204396 21.0818 0.0613178
0.0480388 21.1085 0.0659623 0.0487435 21.1402 0.0708909 0.0534113 21.0961 0.0395588 0.0561892
21.0443 0.0582083 0.0478534 21.0611 0.0611081 0.0491089 21.0085 0.0592206 0.0513591 21.0104
0.0613192 0.0537614 21.0122 0.0591395 0.0507893 20.9833 0.0198315 0.026438 21.0087 0.0580667
0.0510024 21.0093 0.0617256 0.0547026 21.0271 0.0459099 0.0358128 21.0233 0.0510093 0.0433113
21.0177 0.0511639 0.0430378 20.9818 0.0118339 0.0146485 21.0392 0.0392641 0.0262383 21.0341
0.0448442 0.0350736 21.1099 0.00827148 -0.0418775 21.0952 0.0163374 -0.0195837 21.0785 0.0207643
-0.00920345 21.0279 -0.00922293 -0.0404221 21.152 -0.00702524 -0.0921163 21.1321 0.00239861 -0.0597819
21.3285 -0.0753737 -0.499065 21.3133 -0.062121 -0.38173 21.2712 -0.0491806 -0.297585 21.1392
-0.0564179 -0.298523 19.9338 -0.355392 -2.74598 21.3296 -0.0983761 -0.780858 21.3645 -0.0907339
-0.62693 20.6713 -0.117635 -1.26384 20.9024 -0.122409 -1.30324 20.8395 -0.100244 -0.991443
20.2851 0.0704238 -1.68396 20.3686 0.0556054 -1.3462 18.7274 0.0595895 -2.26846 20.2803
0.0712723 -1.70322 19.2964 0.0402473 -1.43188 18.8289 0.0718926 -2.5752 19.1645 0.0668513
-2.25962 19.3666 0.0592254 -1.97328 19.2915 0.288019 -5.91937 18.5625 0.0258659 -0.59178
18.8303 0.0263496 -0.742477 18.261 0.0272919 -0.473061 18.9832 0.0320821 -1.10678 18.4911
0.0358326 -1.20618 18.1943 0.0441058 -1.67436 18.044 0.0543347 -2.32335 18.1477 0.0278307
-0.428426 10.2739 0.0736969 -1.38743 13.1273 0.0615928 -0.842328 13.0118 0.0619449 0.0135239
18.7155 0.138747 -3.95817 18.7151 0.139596 -3.96589 18.8635 0.132128 -3.60275 18.9918
0.11935 -3.27255 18.9384 0.0904927 -2.90668 18.694 0.103444 -3.53037 18.6971 0.105061
-3.55557 17.4327 0.0711671 -3.59564 17.507 0.0575497 -2.66264 16.6017 0.0615766 -3.05335
16.2381 0.0707576 -3.92565 16.2721 0.0807786 -4.83962 16.9702 0.0783998 -4.32186 17.3751
0.0744471 -3.84205 -0.704838 3.78007 -0.587033 -0.58671 2.54783 -1.33652 -1.70712 2.66073
-1.26893 -2.04035 3.7102 -0.490595 -3.93455 2.44908 8.66578 -4.22593 2.30015 9.95241
-4.1074 2.4861 9.74976 -3.89279 2.6251 9.19014 -3.49045 2.98412 8.03334 11.916
-1.63575 0.525711 5.90335 -2.34656 -0.279755 7.82877 -2.2094 1.37327 13.7572 -1.46278
1.99861 -3.8519 -0.000824178 1.1292 -0.635335 -0.834126 1.3674 -1.60694 -1.08496 -0.260447
-4.72518 -0.39502 -0.537259 18.5671 0.0254148 0.587014 13.1324 0.0622333 0.778673 13.1461
0.0622663 0.866074 10.3104 0.0745019 1.43827 10.2449 0.0746034 1.3759 19.2068 0.0225102
0.678639 18.8339 0.0256903 0.735957 18.9842 0.0310316 1.09653 18.0491 0.0540151 2.30086
18.1996 0.0436591 1.65804 18.4952 0.0351535 1.19545 -8.75934 -2.59634 0.438752 -8.64279
-2.59279 0.871879 -8.92731 -2.64839 1.47531 -10.6005 -3.32278 0.290598 -10.6471 -3.28758
0.470895 19.2917 0.0384301 1.418 18.8209 0.0702312 2.55018 19.8366 0.0362983 1.21838
19.9735 0.0300132 1.01646 19.9176 0.0230947 0.804147 19.8344 0.0362692 1.21796 19.7718
0.0285499 1.01252 20.529 0.0588317 1.31325 20.2656 0.0592567 1.65896 20.3519 0.0510803
1.29209 19.0303 0.338315 5.95654 19.0942 0.289266 5.68741 19.2904 0.317342 5.79856
19.8352 0.0363644 1.22049 20.2569 0.0600816 1.69584 20.7969 0.194276 3.41656 20.8864
0.170505 2.94959 20.8697 0.200618 3.45199 21.878 0.263306 2.54101 21.8312 0.241162
2.3147 22.1305 0.282385 1.9224 22.5626 0.441501 2.35699 22.3882 0.393659 2.73484
22.099 0.333822 2.98576 21.9123 0.309373 0.19144 21.6666 0.270028 0.0626906 21.6193
0.462614 0.0108316 21.7857 0.512235 0.0211234 21.9951 0.530104 0.0962665 21.1074 0.355621
0.0728154 21.1368 0.378006 0.0666881 21.2112 0.376141 0.0480372 21.3396 0.19989 0.0210351
21.2503 0.177432 0.0271569 21.076 0.140579 0.04444 21.0548 0.14158 0.0463997 20.8516
0.33738 0.0543993 20.8458 0.351572 0.0626273 20.8865 0.331657 0.062901 20.7584 0.35225
0.0322784 20.7433 0.367091 0.0364401 20.7867 0.347094 0.0395459 21.0264 0.143466 0.045278
21.0177 0.14609 0.0461979 21.004 0.151784 0.0467776 21.0037 0.151739 0.04539 20.6389
0.354989 -0.0120228 20.6084 0.373979 -0.0126133 20.659 0.357586 -0.00232282 20.5928 0.339526
-0.0386554 20.5536 0.359413 -0.0407638 20.606 0.345875 -0.0293827 21.0039 0.148921 0.0405805
21.0051 0.146729 0.0364222 21.0184 0.134905 0.0146636 21.0231 0.130703 0.00806901 20.5674
0.293502 -0.0846669 20.5171 0.312588 -0.0900847 20.5657 0.30488 -0.0765708 20.5874 0.251799
-0.109469 20.531 0.270662 -0.113856 20.5763 0.266917 -0.100437 21.0372 0.119855 -0.0067486
21.0465 0.113307 -0.015907 21.111 0.0761985 -0.0724871 21.137 0.0637102 -0.0943554 20.7115
0.153015 -0.172113 20.6451 0.171024 -0.170613 20.6727 0.176411 -0.155052 20.8838 0.0694464
-0.26012 20.804 0.0887615 -0.245382 20.813 0.100102 -0.222298 21.2066 0.0334542 -0.155291
21.2521 0.0154002 -0.199695 12.8981 -1.06868 -1.63634 19.0208 -0.738591 -2.03179 19.3087
-0.699915 -2.66883 14.7445 -0.958093 -2.9412 21.5143 -0.0766862 -0.58676 21.5715 -0.102613
-0.782601 21.4312 -0.117109 -0.874267 21.4145 -0.0963636 -0.746213 21.3408 -0.0766087 -0.638023
21.2918 -0.214279 -1.9157 21.4189 -0.199214 -1.6323 21.6017 -0.141116 -1.33679 21.3477
-0.152941 -1.55466 20.4553 0.165718 -3.19919 20.9739 0.198787 -3.39972 20.9625 0.156521
-2.66239 20.5776 0.134324 -2.61812 22.1907 0.24321 -1.74241 21.8715 0.212938 -2.22542
22.2358 0.272272 -2.77628 22.5141 0.301064 -2.47702 22.664 0.326735 -2.06988 21.8592
0.258588 -0.0412177 22.1118 0.281866 -0.278232 22.3753 0.42546 -0.121193 22.1756 0.419223
0.0601585 21.9626 0.383489 0.121907 22.8137 0.363298 -1.70182 22.8148 0.386751 -1.30406
22.3348 0.269534 -1.19629 21.7549 0.355567 0.165891 21.5968 0.308648 0.144149 21.6155
0.217553 0.0525823 21.2281 0.09436 0.0477806 21.3095 0.127803 0.0646466 21.259 0.178569
0.0596955 21.2109 0.15826 0.0317721 21.1864 0.136294 0.0154738 21.0742 0.0289258 -0.00692765
21.0977 0.0373869 0.00201349 21.0788 0.0638609 -0.0530258 21.0635 0.0584067 -0.0634179 21.0595
0.0498968 -0.0568382 21.1537 0.121811 -0.00863432 21.1381 0.104002 -0.0163832 21.1697 0.0688782
0.0295894 21.0464 0.0456004 -0.0650743 21.0412 0.0408059 -0.063144 21.0542 0.0238002 -0.0142203
21.0143 0.0161707 -0.0248971 21.0245 0.0177016 -0.0210108 21.0068 0.0323744 -0.0747219 20.9954
0.0330195 -0.084464 20.9934 0.0325954 -0.0825297 20.9925 0.0120987 -0.0344392 20.9949 0.013944
-0.0358147 20.9631 0.0350093 -0.0939746 20.9527 0.0376742 -0.101181 20.9556 0.0371756 -0.0908161
20.9817 0.0332727 -0.0923857 20.9812 0.0320591 -0.0871797 21.0063 0.0153873 -0.0296257 20.9465
0.0402637 -0.0956565 20.9513 0.0396433 -0.0890692 20.9908 0.0102469 -0.0326291 20.9898 0.0101848
-0.0385402 20.9892 0.0103195 -0.0371568 20.9447 0.0451822 -0.0900679 20.9355 0.0495397 -0.0969052
20.9416 0.0481599 -0.0902994 20.9989 0.00838309 -0.0376586 20.9964 0.00895516 -0.0384161 20.938
0.054561 -0.0840565 20.9287 0.0591724 -0.0880402 20.938 0.0558828 -0.0802529 20.9322 0.0525541
-0.0962406 20.9395 0.0504853 -0.0889203 20.9916 0.00992534 -0.0391874 20.9291 0.0603124 -0.0838014
20.9389 0.0558555 -0.0765379 21.0027 0.00691651 -0.03576 21.0214 -0.00278158 -0.0222031 21.0139
0.00101378 -0.0278553 20.9436 0.0523861 -0.0667146 20.935 0.0555734 -0.0683719 20.9476 0.0495034
-0.0601774 21.0711 -0.0261675 0.0171423 21.055 -0.0187111 0.00354989 20.971 0.0331025 -0.0336437
20.9648 0.0337416 -0.0319913 20.9838 0.0247149 -0.0204641 20.9392 0.0522126 -0.0612784 20.9533
0.0452672 -0.0526973 21.0304 -0.00717657 -0.0154106 20.9788 0.0244192 -0.0170031 21.0003 0.0144288
-0.00437232 21.0902 -0.0347769 0.0336409 21.1717 -0.0693684 0.108883 21.1398 -0.0563101 0.0777751
21.048 -0.0129933 0.038096 21.0499 -0.0173126 0.0472478 21.0811 -0.0303008 0.0675801 21.3752
-0.134415 0.363292 21.31 -0.117114 0.269509 21.2463 -0.0958291 0.218407 21.2791 -0.105691